x,T,Ybar.Liq,p,rho,U_0,U_1,U_2
0.001,300,0,1000000000,11582.11721,-4.442904574e-14,0,0
0.003,300,0,1000000000,11582.11721,1.740175493e-13,0,0
0.005,300,0,1000000000,11582.11721,2.159560126e-13,0,0
0.007,300,0,1000000000,11582.11721,4.537463635e-13,0,0
0.009,300,0,1000000000,11582.11721,4.396084062e-13,0,0
0.011,300,0,1000000000,11582.11721,4.830131952e-13,0,0
0.013,300,0,1000000000,11582.11721,4.698354904e-13,0,0
0.015,300,0,1000000000,11582.11721,4.127052378e-13,0,0
0.017,300,0,1000000000,11582.11721,5.220346024e-13,0,0
0.019,300,0,1000000000,11582.11721,6.757569577e-13,0,0
0.021,300,0,1000000000,11582.11721,4.622323151e-13,0,0
0.023,300,0,1000000000,11582.11721,1.685556781e-13,0,0
0.025,300,0,1000000000,11582.11721,3.652019054e-13,0,0
0.027,300,0,1000000000,11582.11721,-3.938284962e-14,0,0
0.029,300,0,1000000000,11582.11721,2.363812153e-13,0,0
0.031,300,0,1000000000,11582.11721,2.881647625e-13,0,0
0.033,300,0,1000000000,11582.11721,4.568652624e-13,0,0
0.035,300,0,1000000000,11582.11721,3.513745055e-13,0,0
0.037,300,0,1000000000,11582.11721,3.985476895e-13,0,0
0.039,300,0,1000000000,11582.11721,3.016386801e-13,0,0
0.041,300,0,1000000000,11582.11721,3.999585517e-13,0,0
0.043,300,0,1000000000,11582.11721,2.991207813e-13,0,0
0.045,300,0,1000000000,11582.11721,3.001219859e-13,0,0
0.047,300,0,1000000000,11582.11721,4.872517472e-13,0,0
0.049,300,0,1000000000,11582.11721,4.135652308e-13,0,0
0.051,300,0,1000000000,11582.11721,4.058788742e-13,0,0
0.053,300,0,1000000000,11582.11721,4.939584596e-13,0,0
0.055,300,0,1000000000,11582.11721,2.800649582e-13,0,0
0.057,300,0,1000000000,11582.11721,4.297166277e-13,0,0
0.059,300,0,1000000000,11582.11721,2.803880534e-13,0,0
0.061,300,0,1000000000,11582.11721,3.528272202e-13,0,0
0.063,300,0,1000000000,11582.11721,1.247652368e-13,0,0
0.065,300,0,1000000000,11582.11721,1.217855016e-13,0,0
0.067,300,0,1000000000,11582.11721,4.182541836e-14,0,0
0.069,300,0,1000000000,11582.11721,1.796364409e-13,0,0
0.071,300,0,1000000000,11582.11721,4.234928745e-14,0,0
0.073,300,0,1000000000,11582.11721,4.553384909e-13,0,0
0.075,300,0,1000000000,11582.11721,1.621133663e-13,0,0
0.077,300,0,1000000000,11582.11721,3.402986443e-13,0,0
0.079,300,0,1000000000,11582.11721,2.598992015e-13,0,0
0.081,300,0,1000000000,11582.11721,3.595918979e-13,0,0
0.083,300,0,1000000000,11582.11721,3.981549532e-13,0,0
0.085,300,0,1000000000,11582.11721,4.624943163e-13,0,0
0.087,300,0,1000000000,11582.11721,6.154448367e-13,0,0
0.089,300,0,1000000000,11582.11721,1.43955656e-12,0,0
0.091,300,0,1000000000,11582.11721,2.874635067e-12,0,0
0.093,300,0,1000000000,11582.11721,7.807967588e-12,0,0
0.095,300,0,1000000000,11582.11721,2.090447625e-11,0,0
0.097,300,0,1000000000,11582.11721,5.821295357e-11,0,0
0.099,300,0,1000000000,11582.11721,1.627677589e-10,0,0
0.101,300,0,1000000000,11582.11721,4.571332867e-10,0,0
0.103,300,0,1000000000,11582.11721,1.282179954e-09,0,0
0.105,300,0,1000000000,11582.11721,3.582921436e-09,0,0
0.107,300,0,1000000000,11582.11721,9.879956533e-09,0,0
0.109,300,0,999999999.9,11582.11721,2.655756108e-08,0,0
0.111,300,0,999999999.8,11582.11721,5.875280059e-08,0,0
0.113,300,0,999999999.6,11582.11721,1.104218154e-07,0,0
0.115,299.9999999,0,999999999.2,11582.1172,1.964049694e-07,0,0
0.117,299.9999999,0,999999998.7,11582.1172,3.481947968e-07,0,0
0.119,299.9999998,0,999999997.6,11582.11719,6.067897412e-07,0,0
0.121,299.9999997,0,999999995.9,11582.11718,1.037908683e-06,0,0
0.123,299.9999994,0,999999993.1,11582.11715,1.755481613e-06,0,0
0.125,299.999999,0,999999988.5,11582.11712,2.939479452e-06,0,0
0.127,299.9999984,0,999999980.8,11582.11705,4.879340198e-06,0,0
0.129,299.9999973,0,999999968.4,11582.11695,8.04184677e-06,0,0
0.131,299.9999956,0,999999948.3,11582.11678,1.315698704e-05,0,0
0.133,299.9999928,0,999999915.9,11582.11652,2.137751386e-05,0,0
0.135,299.9999884,0,999999864.2,11582.11609,3.450748448e-05,0,0
0.137,299.9999813,0,999999782.1,11582.11541,5.532079955e-05,0,0
0.139,299.9999703,0,999999652.9,11582.11434,8.806057954e-05,0,0
0.141,299.999953,0,999999451.1,11582.11267,0.0001391605473,0,0
0.143,299.9999262,0,999999138.5,11582.11008,0.0002182877412,0,0
0.145,299.999885,0,999998657.8,11582.1061,0.000339832529,0,0
0.147,299.9998222,0,999997925.1,11582.10004,0.0005250126416,0,0
0.149,299.9997273,0,999996817,11582.09087,0.000804807494,0,0
0.151,299.999585,0,999995155.8,11582.07713,0.001223996625,0,0
0.153,299.9993734,0,999992686.5,11582.0567,0.001846641044,0,0
0.155,299.9990616,0,999989048.2,11582.0266,0.002763415564,0,0
0.157,299.9986062,0,999983734.8,11581.98264,0.004101265818,0,0
0.159,299.9979471,0,999976045.7,11581.91902,0.006035917254,0,0
0.161,299.9970021,0,999965021.3,11581.82782,0.008807791651,0,0
0.163,299.9956597,0,999949363.3,11581.69829,0.01274186981,0,0
0.165,299.9937713,0,999927337.6,11581.51608,0.01827195779,0,0
0.167,299.9911406,0,999896657.3,11581.26229,0.0259696403,0,0
0.169,299.9875124,0,999854347.6,11580.91231,0.03657791836,0,0
0.171,299.9825591,0,999796592.9,11580.43457,0.05104910916,0,0
0.173,299.9758667,0,999718571.1,11579.7892,0.07058602472,0,0
0.175,299.9669199,0,999614280.6,11578.92654,0.09668476028,0,0
0.177,299.955087,0,999476372.2,11577.7858,0.1311766487,0,0
0.179,299.9396075,0,999295996.6,11576.29376,0.1762661482,0,0
0.181,299.9195808,0,999062686.2,11574.3638,0.234560738,0,0
0.183,299.8939605,0,998764287.8,11571.89531,0.3090884332,0,0
0.185,299.8615539,0,998386965.5,11568.7737,0.4032984486,0,0
0.187,299.821029,0,997915291.2,11564.87112,0.5210409793,0,0
0.189,299.7709302,0,997332435,11560.04802,0.666523103,0,0
0.191,299.7097019,0,996620461.2,11554.15549,0.8442394591,0,0
0.193,299.635722,0,995760727,11547.03856,1.058878514,0,0
0.195,299.547342,0,994734370.3,11538.54011,1.315207653,0,0
0.197,299.4429324,0,993522862.4,11528.50544,1.617942741,0,0
0.199,299.3209319,0,992108593,11516.78695,1.971609816,0,0
0.201,299.1798955,0,990475449.3,11503.24897,2.380407834,0,0
0.203,299.0185387,0,988609349.3,11487.77204,2.848081742,0,0
0.205,298.835776,0,986498692.3,11470.25664,3.377814417,0,0
0.207,298.6307492,0,984134697.6,11450.62602,3.972144316,0,0
0.209,298.4028459,0,981511610.9,11428.82785,4.632913358,0,0
0.211,298.1517064,0,978626772.8,11404.83493,5.361246752,0,0
0.213,297.877219,0,975480552.6,11378.64467,6.157563831,0,0
0.215,297.5795068,0,972076162.6,11350.27762,7.02161649,0,0
0.217,297.2589056,0,968419376.7,11319.7753,7.952550113,0,0
0.219,296.9159362,0,964518179.6,11287.1974,8.948980691,0,0
0.221,296.5512735,0,960382377.4,11252.61861,10.00908156,0,0
0.223,296.1657146,0,956023195,11216.12545,11.13067341,0,0
0.225,295.7601475,0,951452886.8,11177.81312,12.31131205,0,0
0.227,295.3355218,0,946684378.4,11137.78258,13.54836964,0,0
0.229,294.8928238,0,941730951.4,11096.13803,14.83910635,0,0
0.231,294.4330549,0,936605980.6,11052.98478,16.18073095,0,0
0.233,293.9572141,0,931322721.1,11008.42749,17.57045016,0,0
0.235,293.4662846,0,925894143.9,10962.56885,19.00550717,0,0
0.237,292.9612244,0,920332817.2,10915.50861,20.48320996,0,0
0.239,292.4429589,0,914650825.6,10867.34293,22.00095158,0,0
0.241,291.912377,0,908859715.3,10818.16385,23.55622441,0,0
0.243,291.3703273,0,902970459.1,10768.05911,25.14663013,0,0
0.245,290.8176168,0,896993435.1,10717.11186,26.76988654,0,0
0.247,290.255009,0,890938415.2,10665.4006,28.4238322,0,0
0.249,289.6832233,0,884814561.1,10612.9991,30.10642947,0,0
0.251,289.1029347,0,878630424.3,10559.9764,31.81576654,0,0
0.253,288.5147734,0,872393949.9,10506.39681,33.5500583,0,0
0.255,287.9193255,0,866112485,10452.3199,35.30762811,0,0
0.257,287.3171657,0,859793095.9,10397.80313,37.08681157,0,0
0.259,286.7089597,0,853443798.7,10342.91302,38.88584603,0,0
0.261,286.0952425,0,847071111.4,10287.70365,40.70317809,0,0
0.263,285.4764281,0,840680018,10232.21557,42.53760176,0,0
0.265,284.8528976,0,834275177.4,10176.4872,44.38801382,0,0
0.267,284.225013,0,827860958.7,10120.55472,46.25338487,0,0
0.269,283.5931125,0,821441416.5,10064.45187,48.13275287,0,0
0.271,282.957511,0,815020287.3,10008.20985,50.02521317,0,0
0.273,282.3185108,0,808601098.1,9951.858277,51.92988307,0,0
0.275,281.6764175,0,802187366.6,9895.427017,53.84590786,0,0
0.277,281.0315068,0,795782240.3,9838.942921,55.77250613,0,0
0.279,280.3840289,0,789388530.1,9782.430029,57.70896674,0,0
0.281,279.7342196,0,783008851.7,9725.910876,59.65462271,0,0
0.283,279.0822973,0,776645617.7,9669.406477,61.60885983,0,0
0.285,278.4284523,0,770300890.6,9612.934809,63.57112588,0,0
0.287,277.7728623,0,763976575.4,9556.512651,65.54091298,0,0
0.289,277.1156931,0,757674422.9,9500.155559,67.51774817,0,0
0.291,276.457099,0,751396037,9443.877914,69.50119071,0,0
0.293,275.7972238,0,745142884.2,9387.692998,71.49083025,0,0
0.295,275.1362012,0,738916303.3,9331.613066,73.48628473,0,0
0.297,274.4741556,0,732717515.9,9275.649431,75.48719829,0,0
0.299,273.8112032,0,726547635.9,9219.812535,77.49323921,0,0
0.301,273.1474521,0,720407677.7,9164.112019,79.50409801,0,0
0.303,272.4830034,0,714298564.5,9108.556785,81.51948577,0,0
0.305,271.8179512,0,708221135.2,9053.155057,83.53913251,0,0
0.307,271.1523839,0,702176151.4,8997.914425,85.5627858,0,0
0.309,270.4863838,0,696164302.7,8942.841899,87.59020952,0,0
0.311,269.8200279,0,690186212.4,8887.943944,89.62118273,0,0
0.313,269.1533883,0,684242441.7,8833.226523,91.65549877,0,0
0.315,268.4865323,0,678333493.8,8778.695115,93.6929646,0,0
0.317,267.8195228,0,672459816.7,8724.354749,95.73340014,0,0
0.319,267.152418,0,666621807.2,8670.210023,97.77663764,0,0
0.321,266.4852725,0,660819817.5,8616.265181,99.82252009,0,0
0.323,265.8181327,0,655054156.7,8562.524249,101.8708957,0,0
0.325,265.1510546,0,649325133.4,8508.991014,103.9216171,0,0
0.327,264.4840876,0,643633005.8,8455.668901,105.9745483,0,0
0.329,263.8172745,0,637977982.2,8402.560955,108.0295641,0,0
0.331,263.1506568,0,632360245.1,8349.669997,110.0865484,0,0
0.333,262.4842702,0,626779931.3,8296.998474,112.1453911,0,0
0.335,261.8181539,0,621237181.2,8244.548832,114.2059938,0,0
0.337,261.1523326,0,615732037,8192.322718,116.2682578,0,0
0.339,260.4868511,0,610264654.1,8140.322697,118.3321067,0,0
0.341,259.8217098,0,604834886.2,8088.548739,120.3974456,0,0
0.343,259.1569793,0,599443075,8037.005186,122.4642315,0,0
0.345,258.4926113,0,594088653.4,7985.687926,124.5323666,0,0
0.347,257.8287371,0,588772456.8,7934.606146,126.6017784,0,0
0.349,257.1652192,0,583493342.6,7883.750735,128.6724245,0,0
0.351,256.5022818,0,578252884.3,7833.138133,130.7441817,0,0
0.353,255.8396757,0,573049054,7782.750614,132.8167406,0,0
0.355,255.1779129,0,567885239.8,7732.620745,134.8902533,0,0
0.357,254.516431,0,562757092,7682.708629,136.9644567,0,0
0.359,253.8559775,0,557669836,7633.065178,139.0394652,0,0
0.361,253.1956679,0,552616847.5,7583.628688,141.1151064,0,0
0.363,252.5365698,0,547605569.2,7534.471414,143.1914986,0,0
0.365,251.8774744,0,542627138.5,7485.509932,145.2685122,0,0
0.367,251.2197128,0,537690926.2,7436.835981,147.3462006,0,0
0.369,250.5619327,0,532786715.4,7388.3508,149.4245143,0,0
0.371,249.9054932,0,527924584.7,7340.156081,151.5034367,0,0
0.373,249.2490521,0,523094039.2,7292.147862,153.5829634,0,0
0.375,248.5939705,0,518305217.7,7244.429666,155.6630684,0,0
0.377,247.9388833,0,513547611.8,7196.896937,157.7437376,0,0
0.379,247.285187,0,508831422.6,7149.65411,159.8249543,0,0
0.381,246.6314837,0,504146027.5,7102.594884,161.9066943,0,0
0.383,245.979202,0,499501817,7055.826523,163.9889373,0,0
0.385,245.3269154,0,494887976.8,7009.239746,166.0716257,0,0
0.387,244.6761081,0,490315295.2,6962.94697,168.1547103,0,0
0.389,244.0253551,0,485772770,6916.835127,170.2380551,0,0
0.391,243.3761227,0,481271731.3,6871.026056,172.3214082,0,0
0.393,242.7273016,0,476802135.1,6825.410465,174.4043952,0,0
0.395,242.080058,0,472375004.6,6780.115697,176.4865478,0,0
0.397,241.4336255,0,467980258.4,6735.021511,178.5674953,0,0
0.399,240.7889205,0,463629148.8,6690.266895,180.6473896,0,0
0.401,240.1450173,0,459309976.3,6645.71188,182.7249391,0,0
0.403,239.5036375,0,455037442.1,6601.524359,184.80102,0,0
0.405,238.8622668,0,450795123.8,6557.538825,186.8740973,0,0
0.407,238.2247872,0,446602854.7,6513.940052,188.943959,0,0
0.409,237.5867533,0,442442776.8,6470.593198,191.0103313,0,0
0.411,236.9546702,0,438335210.8,6427.621517,193.0700911,0,0
0.413,236.3223441,0,434267805.1,6385.017006,195.124606,0,0
0.415,235.6954225,0,430253586.1,6342.822545,197.1675067,0,0
0.417,235.0731095,0,426289933.2,6301.026923,199.2035158,0,0
0.419,234.4515473,0,422379295.3,6259.775074,201.2259073,0,0
0.421,233.8402063,0,418533570.6,6218.996657,203.2308159,0,0
0.423,233.2329625,0,414752892.2,6178.864977,205.2180882,0,0
0.425,232.6345303,0,411046891.7,6139.406656,207.1807703,0,0
0.427,232.0463114,0,407425326.3,6100.740651,209.1135359,0,0
0.429,231.4711637,0,403906619.7,6063.07983,211.0055302,0,0
0.431,230.9133413,0,400514801.4,6026.688646,212.8426764,0,0
0.433,230.3784656,0,397280865.2,5991.905797,214.6067623,0,0
0.435,229.8733815,0,394243810.4,5959.164987,216.274725,0,0
0.437,229.406316,0,391450139.7,5928.984189,217.8188652,0,0
0.439,228.9864727,0,388951065,5901.933993,219.2083534,0,0
0.441,228.6231542,0,386796490.7,5878.567691,220.4127209,0,0
0.443,228.3235628,0,385025245.6,5859.326302,221.4074159,0,0
0.445,228.0909025,0,383653477.4,5844.406105,222.1807676,0,0
0.447,227.9230111,0,382664648.6,5833.636707,222.7399159,0,0
0.449,227.8113655,0,382006324.6,5826.454731,223.1127338,0,0
0.451,227.7425568,0,381598451.8,5821.992241,223.3439554,0,0
0.453,227.7008636,0,381349250.4,5819.255553,223.48467,0,0
0.455,227.672333,0,381177862.7,5817.369145,223.5813597,0,0
0.457,227.6476746,0,381028506.5,5815.719617,223.6655918,0,0
0.459,227.6222357,0,380876817,5814.054051,223.7519901,0,0
0.461,227.5949106,0,380715556.8,5812.290167,223.8441745,0,0
0.463,227.5645657,0,380536541.1,5810.331862,223.9465399,0,0
0.465,227.5302292,0,380332822.5,5808.097691,224.0629151,0,0
0.467,227.4913341,0,380100725.6,5805.545746,224.1950958,0,0
0.469,227.4480602,0,379841222.8,5802.685975,224.3423357,0,0
0.471,227.4025768,0,379563051.5,5799.596223,224.4995167,0,0
0.473,227.3579227,0,379296818.3,5796.666537,224.649599,0,0
0.475,227.326996,0,379110595.1,5794.60877,224.7567762,0,0
0.477,227.3058627,0,378981800.9,5793.178741,224.8302858,0,0
0.479,227.2890898,0,378878427.6,5792.025955,224.888942,0,0
0.481,227.2734322,0,378781038.8,5790.936073,224.9442532,0,0
0.483,227.2577321,0,378683370.1,5789.842844,224.9998218,0,0
0.485,227.2420563,0,378585822.3,5788.750691,225.0553087,0,0
0.487,227.2272377,0,378492939.6,5787.707892,225.108305,0,0
0.489,227.2137284,0,378407973.2,5786.752671,225.1568305,0,0
0.491,227.2015336,0,378330124.9,5785.872719,225.2013294,0,0
0.493,227.1902775,0,378257989.2,5785.05614,225.2425577,0,0
0.495,227.1798589,0,378190280.4,5784.285865,225.2812372,0,0
0.497,227.1700495,0,378126178.6,5783.555179,225.3178334,0,0
0.499,227.1607687,0,378065181.8,5782.858466,225.3526409,0,0
0.501,227.1520216,1.610556854e-49,378006933.3,5782.190152,225.3858802,0,0
0.503,227.1436456,2.040266103e-47,377951190.9,5781.550676,225.417706,0,0
0.505,227.1358058,1.29178292e-45,377897843.2,5780.934139,225.4481896,0,0
0.507,227.1283053,5.449853617e-44,377846858.7,5780.345079,225.4773446,0,0
0.509,227.1213218,1.723416901e-42,377798172.6,5779.777981,225.5051962,0,0
0.511,227.1147001,4.357201828e-41,377751604.3,5779.234047,225.5318343,0,0
0.513,227.1084448,9.173601502e-40,377706889.9,5778.709119,225.5574035,0,0
0.515,227.1025546,1.654251528e-38,377663795.7,5778.199663,225.5820381,0,0
0.517,227.0968527,2.608129297e-37,377622213.6,5777.708523,225.6058065,0,0
0.519,227.0915773,3.652133641e-36,377582141.8,5777.229621,225.6287146,0,0
0.521,227.0864364,4.598719986e-35,377543579.2,5776.770364,225.6507645,0,0
0.523,227.081731,5.259591778e-34,377506431.2,5776.321656,225.672008,0,0
0.525,227.0771572,5.509182121e-33,377470526.3,5775.888602,225.6925395,0,0
0.527,227.0729145,5.321781767e-32,377435730.3,5775.464076,225.712436,0,0
0.529,227.0688308,4.769046821e-31,377402035.2,5775.052337,225.731702,0,0
0.531,227.0650312,3.98494427e-30,377369528.2,5774.65154,225.7502902,0,0
0.533,227.0614814,3.11857616e-29,377338236.7,5774.262976,225.7681825,0,0
0.535,227.0581225,2.294695222e-28,377308006.7,5773.885791,225.7854647,0,0
0.537,227.0550071,1.593033794e-27,377278548.2,5773.514209,225.8023049,0,0
0.539,227.0519629,1.046622204e-26,377249627.9,5773.149043,225.8188322,0,0
0.541,227.0491075,6.525516992e-26,377221293.1,5772.788029,225.8350406,0,0
0.543,227.0464364,3.870602527e-25,377193785,5772.434967,225.8507705,0,0
0.545,227.0439683,2.189062332e-24,377167375.3,5772.093548,225.8659002,0,0
0.547,227.0417953,1.182885829e-23,377141974.8,5771.760064,225.8804172,0,0
0.549,227.0397272,6.118506258e-23,377117373.4,5771.436137,225.8945405,0,0
0.551,227.0378792,3.034653417e-22,377092982.6,5771.109833,225.9084642,0,0
0.553,227.0360413,1.4455036e-21,377068759.3,5770.78583,225.9223155,0,0
0.555,227.0344234,6.6222676e-21,377045111.9,5770.465045,225.935895,0,0
0.557,227.033117,2.921853269e-20,377022526.4,5770.152588,225.9488238,0,0
0.559,227.0319797,1.243133792e-19,377000949,5769.851259,225.961212,0,0
0.561,227.031086,5.106102445e-19,376979872.8,5769.551409,225.973241,0,0
0.563,227.0302644,2.026955836e-18,376959066,5769.253845,225.9852249,0,0
0.565,227.0295773,7.784310798e-18,376938049.1,5768.949646,225.9972647,0,0
0.567,227.0288663,2.894870257e-17,376917208.2,5768.648747,226.0091447,0,0
0.569,227.0285928,1.043414562e-16,376897558.4,5768.354959,226.0203439,0,0
0.571,227.0286488,3.648104997e-16,376879088.1,5768.070853,226.0309498,0,0
0.573,227.0287799,1.238228965e-15,376860704.4,5767.786161,226.0415448,0,0
0.575,227.0289929,4.082982874e-15,376842137.2,5767.496584,226.0522258,0,0
0.577,227.0293478,1.308876657e-14,376823414.7,5767.201026,226.0629281,0,0
0.579,227.0299761,4.081790157e-14,376805529.1,5766.911329,226.0731768,0,0
0.581,227.0308968,1.239095788e-13,376788960.5,5766.634364,226.0826586,0,0
0.583,227.0320066,3.663669073e-13,376772653,5766.356595,226.0920745,0,0
0.585,227.0332561,1.055663275e-12,376756065.6,5766.070998,226.1016197,0,0
0.587,227.0346575,2.96592961e-12,376739140.4,5765.776375,226.1112984,0,0
0.589,227.0363436,8.129051672e-12,376722497.5,5765.478847,226.1208153,0,0
0.591,227.0383868,2.174557597e-11,376707342,5765.19502,226.129449,0,0
0.593,227.0406919,5.680021633e-11,376692756,5764.913261,226.1378839,0,0
0.595,227.0431779,1.449312775e-10,376677803.4,5764.621307,226.1464974,0,0
0.597,227.0458507,3.613963025e-10,376662396.3,5764.31766,226.1553264,0,0
0.599,227.0488493,8.81014178e-10,376646962.6,5764.00534,226.1641117,0,0
0.601,227.0523059,2.100498e-09,376633228.8,5763.707412,226.1719101,0,0
0.603,227.0561285,4.899534625e-09,376620366.7,5763.413537,226.1793823,0,0
0.605,227.0601955,1.118469716e-08,376606961.1,5763.105134,226.1871298,0,0
0.607,227.0645004,2.49958444e-08,376592784,5762.778865,226.1952562,0,0
0.609,227.0692071,5.470369217e-08,376578240.6,5762.436736,226.2034847,0,0
0.611,227.0745191,1.172730902e-07,376565461.4,5762.10611,226.2107084,0,0
0.613,227.0803561,2.463391755e-07,376554088.4,5761.783394,226.2173558,0,0
0.615,227.086555,5.071462454e-07,376541901.1,5761.438462,226.224442,0,0
0.617,227.0931183,1.023538417e-06,376528435.4,5761.063596,226.2321694,0,0
0.619,227.1003614,2.025573675e-06,376514262.3,5760.658497,226.2400805,0,0
0.621,227.1086581,3.931575015e-06,376503178.6,5760.269908,226.2462109,0,0
0.623,227.1179032,7.486050534e-06,376493594.9,5759.872832,226.2519612,0,0
0.625,227.1280754,1.398591018e-05,376482444.1,5759.415066,226.2585379,0,0
0.627,227.1395599,2.564255397e-05,376469194.5,5758.868788,226.2661838,0,0
0.629,227.1534923,4.614682914e-05,376455337,5758.211458,226.2732574,0,0
0.631,227.1709218,8.152956072e-05,376447567.9,5757.491848,226.2781899,0,0
0.633,227.1929849,0.0001414300404,376437806.6,5756.514332,226.2840838,0,0
0.635,227.222029,0.0002409256861,376425728.3,5755.146923,226.2910488,0,0
0.637,227.2620625,0.0004030851692,376412663.6,5753.205222,226.2979994,0,0
0.639,227.3187772,0.0006624301804,376403870.3,5750.471274,226.303408,0,0
0.641,227.3999693,0.001069430759,376394190.8,5746.444192,226.3092158,0,0
0.643,227.51707,0.001696174678,376383730.5,5740.517001,226.3154013,0,0
0.645,227.6861348,0.002643148705,376373179.6,5731.852434,226.3215899,0,0
0.647,227.9290373,0.004046913329,376363589.7,5719.320401,226.3277312,0,0
0.649,228.2746981,0.006088117685,376354378.5,5701.41104,226.3342775,0,0
0.651,228.7606018,0.008998974459,376345258.1,5676.211095,226.3417687,0,0
0.653,229.4340526,0.01306883938,376336617.6,5641.384958,226.350991,0,0
0.655,230.3530636,0.01864610544,376328563.4,5594.180549,226.3633522,0,0
0.657,231.5867354,0.02613443262,376321135.9,5531.517197,226.3809737,0,0
0.659,233.2148108,0.03598145532,376314811,5450.161911,226.4068815,0,0
0.661,235.3259983,0.04865872136,376309946.7,5346.98783,226.4454293,0,0
0.663,238.0151206,0.06463302626,376306242,5219.316474,226.5023088,0,0
0.665,241.3785066,0.08433144721,376303484.2,5065.335119,226.5839916,0,0
0.667,245.5078549,0.1081046477,376301736.1,4884.492288,226.6975053,0,0
0.669,250.4814957,0.136193903,376299124.5,4677.789567,226.8493112,0,0
0.671,256.3552243,0.1687090566,376297345.6,4447.964031,227.0487371,0,0
0.673,263.1569711,0.2056314926,376334350.1,4199.601422,227.3294799,0,0
0.675,270.8695915,0.2467584302,376310854.8,3937.287443,227.6851965,0,0
0.677,279.3963282,0.2918090599,376223957,3667.682209,227.9625152,0,0
0.679,288.645399,0.3404680647,376260861.1,3398.129034,228.1392681,0,0
0.681,298.4242827,0.3921776306,376260093.4,3133.380239,228.2804167,0,0
0.683,308.5031727,0.4463872577,376260299.2,2878.71483,228.4045429,0,0
0.685,318.6293311,0.5024127472,376261613.3,2637.9669,228.5074048,0,0
0.687,328.5433721,0.5594590796,376270735.3,2413.864219,228.5852092,0,0
0.689,338.0010635,0.6166027452,376270502.3,2208.053609,228.6113287,0,0
0.691,346.7959835,0.6728178297,376228543,2021.368877,228.5576097,0,0
0.693,354.7506844,0.7271235852,376259287.9,1854.422871,228.4476839,0,0
0.695,361.8311558,0.7783940762,376276878.6,1706.742894,228.3798471,0,0
0.697,367.8676627,0.8257193757,376184595.7,1578.008941,228.2417768,0,0
0.699,372.609102,0.8668722043,376286592.8,1471.86696,228.1721345,0,0
0.701,376.174887,0.8998024375,376292026.4,1389.753885,228.2808228,0,0
0.703,378.838984,0.9256248102,376277167.1,1326.996649,228.4003293,0,0
0.705,380.8086264,0.9455232639,376275797.1,1279.567971,228.4458794,0,0
0.707,382.2425149,0.9606097931,376277816.1,1244.118362,228.4747437,0,0
0.709,383.2670587,0.9718745983,376279343.8,1217.925182,228.4954558,0,0
0.711,383.9824311,0.9801640283,376280878,1198.800467,228.5081246,0,0
0.713,384.4678788,0.9861786615,376282723.5,1185.005828,228.5152,0,0
0.715,384.78584,0.9904834487,376284604.3,1175.178097,228.5197673,0,0
0.717,384.9845768,0.9935236573,376286460,1168.263659,228.5227759,0,0
0.719,385.1003516,0.9956429975,376288326.7,1163.460088,228.5250385,0,0
0.721,385.1599411,0.9971017152,376290262.8,1160.16529,228.5267844,0,0
0.723,385.1830472,0.9980933206,376292187.1,1157.934089,228.5280354,0,0
0.725,385.1837161,0.9987592467,376294026.3,1156.442412,228.5289818,0,0
0.727,385.1713042,0.999201175,376295821,1155.45812,228.5301082,0,0
0.729,385.1514295,0.999491065,376297622.8,1154.817557,228.5308696,0,0
0.731,385.127707,0.9996790759,376299414.6,1154.40682,228.5316745,0,0
0.733,385.1023162,0.9997996656,376301201.2,1154.147818,228.5324333,0,0
0.735,385.0766087,0.9998761764,376302985.7,1153.987707,228.533185,0,0
0.737,385.0515361,0.9999242074,376304776.9,1153.891153,228.5339419,0,0
0.739,385.0286334,0.9999540481,376306585,1153.834477,228.5346373,0,0
0.741,385.0101686,0.9999723998,376308363.8,1153.801706,228.5352849,0,0
0.743,384.9923794,0.9999835744,376310205.7,1153.784773,228.5359766,0,0
0.745,384.9725151,0.9999903127,376312074.7,1153.778654,228.5367594,0,0
0.747,384.9502443,0.9999943374,376313881.4,1153.779588,228.5376227,0,0
0.749,384.9265104,0.9999967187,376315702.7,1153.784817,228.5385189,0,0
0.751,384.9028649,0.9999981149,376317566.4,1153.792239,228.5393685,0,0
0.753,384.88141,0.9999989261,376319420.9,1153.800065,228.5401894,0,0
0.755,384.8619589,0.9999993933,376321283.5,1153.807839,228.5410041,0,0
0.757,384.8439595,0.99999966,376323150.6,1153.815465,228.5418237,0,0
0.759,384.8270804,0.999999811,376325020.3,1153.822891,228.5426494,0,0
0.761,384.8111093,0.9999998958,376326893,1153.830091,228.5434777,0,0
0.763,384.7959093,0.999999943,376328768.5,1153.837059,228.5443076,0,0
0.765,384.7813841,0.999999969,376330646.4,1153.843797,228.5451399,0,0
0.767,384.767466,0.9999999833,376332526.4,1153.850312,228.5459742,0,0
0.769,384.7541009,0.9999999911,376334408.7,1153.856615,228.5468105,0,0
0.771,384.7412479,0.9999999953,376336293.6,1153.862715,228.5476483,0,0
0.773,384.728871,0.9999999975,376338181.1,1153.868624,228.5484879,0,0
0.775,384.7169425,0.9999999987,376340071.5,1153.874352,228.5493294,0,0
0.777,384.7054363,0.9999999993,376341965,1153.879909,228.5501728,0,0
0.779,384.694333,0.9999999996,376343861.7,1153.885301,228.5510181,0,0
0.781,384.683613,0.9999999998,376345761.9,1153.890536,228.5518654,0,0
0.783,384.6732618,0.9999999999,376347665.6,1153.895622,228.5527148,0,0
0.785,384.6632637,1,376349573.1,1153.900563,228.5535664,0,0
0.787,384.653607,1,376351484.4,1153.905364,228.5544201,0,0
0.789,384.6442779,1,376353399.6,1153.910033,228.555276,0,0
0.791,384.6352661,1,376355318.9,1153.914571,228.5561342,0,0
0.793,384.626559,1,376357242.4,1153.918986,228.5569946,0,0
0.795,384.6181473,1,376359170.1,1153.923281,228.5578574,0,0
0.797,384.6100193,1,376361102.1,1153.92746,228.5587226,0,0
0.799,384.6021664,1,376363038.5,1153.931528,228.5595902,0,0
0.801,384.5945777,1,376364979.3,1153.935488,228.5604603,0,0
0.803,384.587245,1,376366924.8,1153.939344,228.5613328,0,0
0.805,384.5801577,1,376368874.9,1153.943101,228.5622079,0,0
0.807,384.5733079,1,376370829.8,1153.946762,228.5630855,0,0
0.809,384.5666854,1,376372789.6,1153.950331,228.5639658,0,0
0.811,384.5602826,1,376374754.2,1153.953812,228.5648488,0,0
0.813,384.5540894,1,376376723.8,1153.957207,228.5657344,0,0
0.815,384.5480985,1,376378698.4,1153.960522,228.5666228,0,0
0.817,384.5423001,1,376380678.2,1153.963758,228.5675139,0,0
0.819,384.5366868,1,376382663,1153.966921,228.5684079,0,0
0.821,384.5312489,1,376384653,1153.970013,228.5693046,0,0
0.823,384.5259788,1,376386648.1,1153.973038,228.5702042,0,0
0.825,384.5208671,1,376388648.5,1153.976,228.5711066,0,0
0.827,384.515907,1,376390654,1153.978901,228.5720119,0,0
0.829,384.5110898,1,376392664.6,1153.981745,228.5729201,0,0
0.831,384.5064102,1,376394680.4,1153.984535,228.5738311,0,0
0.833,384.5018613,1,376396701.4,1153.987273,228.574745,0,0
0.835,384.4974394,1,376398727.4,1153.98996,228.5756617,0,0
0.837,384.4931394,1,376400758.5,1153.992599,228.5765814,0,0
0.839,384.4889593,1,376402794.6,1153.995191,228.5775039,0,0
0.841,384.4848948,1,376404835.7,1153.997737,228.5784293,0,0
0.843,384.4809446,1,376406881.8,1154.000238,228.5793576,0,0
0.845,384.4771045,1,376408932.8,1154.002695,228.5802887,0,0
0.847,384.4733726,1,376410988.7,1154.00511,228.5812228,0,0
0.849,384.4697447,1,376413049.5,1154.007483,228.5821596,0,0
0.851,384.4662181,1,376415115.1,1154.009817,228.5830994,0,0
0.853,384.462788,1,376417185.5,1154.012113,228.584042,0,0
0.855,384.4594514,1,376419260.7,1154.014372,228.5849875,0,0
0.857,384.4562034,1,376421340.6,1154.016597,228.5859359,0,0
0.859,384.4530411,1,376423425.2,1154.018788,228.5868872,0,0
0.861,384.44996,1,376425514.6,1154.020948,228.5878413,0,0
0.863,384.4469575,1,376427608.7,1154.023077,228.5887984,0,0
0.865,384.4440298,1,376429707.5,1154.025177,228.5897583,0,0
0.867,384.441175,1,376431811,1154.027249,228.5907211,0,0
0.869,384.4383898,1,376433919.2,1154.029294,228.5916869,0,0
0.871,384.4356731,1,376436032.2,1154.031313,228.5926556,0,0
0.873,384.4330221,1,376438149.9,1154.033307,228.5936272,0,0
0.875,384.430436,1,376440272.3,1154.035276,228.5946018,0,0
0.877,384.4279127,1,376442399.6,1154.03722,228.5955794,0,0
0.879,384.4254514,1,376444531.7,1154.039142,228.5965599,0,0
0.881,384.4230502,1,376446668.7,1154.04104,228.5975435,0,0
0.883,384.4207082,1,376448810.6,1154.042916,228.5985301,0,0
0.885,384.4184239,1,376450957.4,1154.04477,228.5995198,0,0
0.887,384.4161959,1,376453109.3,1154.046603,228.6005125,0,0
0.889,384.4140229,1,376455266.2,1154.048416,228.6015083,0,0
0.891,384.4119035,1,376457428.3,1154.050208,228.6025072,0,0
0.893,384.4098363,1,376459595.6,1154.051981,228.6035093,0,0
0.895,384.4078197,1,376461768.1,1154.053736,228.6045146,0,0
0.897,384.4058525,1,376463946,1154.055472,228.605523,0,0
0.899,384.4039327,1,376466129.2,1154.057191,228.6065346,0,0
0.901,384.4020592,1,376468318,1154.058893,228.6075495,0,0
0.903,384.40023,1,376470512.2,1154.060579,228.6085676,0,0
0.905,384.398444,1,376472712,1154.062249,228.609589,0,0
0.907,384.3966992,1,376474917.5,1154.063905,228.6106138,0,0
0.909,384.3949947,1,376477128.6,1154.065546,228.6116418,0,0
0.911,384.3933289,1,376479345.6,1154.067174,228.6126731,0,0
0.913,384.3917014,1,376481568.3,1154.068789,228.6137078,0,0
0.915,384.3901109,1,376483797,1154.07039,228.6147459,0,0
0.917,384.3885575,1,376486031.5,1154.071979,228.6157874,0,0
0.919,384.3870404,1,376488272.1,1154.073556,228.6168322,0,0
0.921,384.3855595,1,376490518.7,1154.07512,228.6178805,0,0
0.923,384.3841143,1,376492771.3,1154.076671,228.6189321,0,0
0.925,384.3827046,1,376495030.1,1154.078211,228.6199872,0,0
0.927,384.3813293,1,376497294.9,1154.079739,228.6210458,0,0
0.929,384.379988,1,376499566,1154.081255,228.6221078,0,0
0.931,384.378679,1,376501843.3,1154.082761,228.6231732,0,0
0.933,384.3774018,1,376504126.8,1154.084256,228.6242421,0,0
0.935,384.3761544,1,376506416.6,1154.085742,228.6253144,0,0
0.937,384.3749363,1,376508712.7,1154.087218,228.6263902,0,0
0.939,384.3737458,1,376511015.1,1154.088685,228.6274695,0,0
0.941,384.3725828,1,376513323.8,1154.090144,228.6285523,0,0
0.943,384.371446,1,376515638.8,1154.091594,228.6296385,0,0
0.945,384.3703358,1,376517960.3,1154.093036,228.6307281,0,0
0.947,384.3692512,1,376520288.1,1154.09447,228.6318213,0,0
0.949,384.3681929,1,376522622.4,1154.095896,228.6329179,0,0
0.951,384.3671601,1,376524963,1154.097315,228.6340181,0,0