x,T,p,rho,U_0,U_1,U_2
0.000625,2.5,1,1,6.82352e-65,0,0
0.001875,2.5,1,1,6.82352e-65,0,0
0.003125,2.5,1,1,2.38435e-64,0,0
0.004375,2.5,1,1,2.38435e-64,0,0
0.005625,2.5,1,1,1.13049e-63,0,0
0.006875,2.5,1,1,1.13049e-63,0,0
0.008125,2.5,1,1,5.24502e-63,0,0
0.009375,2.5,1,1,5.24502e-63,0,0
0.010625,2.5,1,1,2.42117e-62,0,0
0.011875,2.5,1,1,2.42117e-62,0,0
0.013125,2.5,1,1,1.11113e-61,0,0
0.014375,2.5,1,1,1.11113e-61,0,0
0.015625,2.5,1,1,5.06949e-61,0,0
0.016875,2.5,1,1,5.06949e-61,0,0
0.018125,2.5,1,1,2.29936e-60,0,0
0.019375,2.5,1,1,2.29936e-60,0,0
0.020625,2.5,1,1,1.03676e-59,0,0
0.021875,2.5,1,1,1.03676e-59,0,0
0.023125,2.5,1,1,4.64685e-59,0,0
0.024375,2.5,1,1,4.64685e-59,0,0
0.025625,2.5,1,1,2.07029e-58,0,0
0.026875,2.5,1,1,2.07029e-58,0,0
0.028125,2.5,1,1,9.16811e-58,0,0
0.029375,2.5,1,1,9.16811e-58,0,0
0.030625,2.5,1,1,4.03539e-57,0,0
0.031875,2.5,1,1,4.03539e-57,0,0
0.033125,2.5,1,1,1.76535e-56,0,0
0.034375,2.5,1,1,1.76535e-56,0,0
0.035625,2.5,1,1,7.6753e-56,0,0
0.036875,2.5,1,1,7.6753e-56,0,0
0.038125,2.5,1,1,3.31636e-55,0,0
0.039375,2.5,1,1,3.31636e-55,0,0
0.040625,2.5,1,1,1.424e-54,0,0
0.041875,2.5,1,1,1.424e-54,0,0
0.043125,2.5,1,1,6.076e-54,0,0
0.044375,2.5,1,1,6.076e-54,0,0
0.045625,2.5,1,1,2.57613e-53,0,0
0.046875,2.5,1,1,2.57613e-53,0,0
0.048125,2.5,1,1,1.08527e-52,0,0
0.049375,2.5,1,1,1.08527e-52,0,0
0.050625,2.5,1,1,4.5426e-52,0,0
0.051875,2.5,1,1,4.5426e-52,0,0
0.053125,2.5,1,1,1.88908e-51,0,0
0.054375,2.5,1,1,1.88908e-51,0,0
0.055625,2.5,1,1,7.80457e-51,0,0
0.056875,2.5,1,1,7.80457e-51,0,0
0.058125,2.5,1,1,3.20317e-50,0,0
0.059375,2.5,1,1,3.20317e-50,0,0
0.060625,2.5,1,1,1.30593e-49,0,0
0.061875,2.5,1,1,1.30593e-49,0,0
0.063125,2.5,1,1,5.28866e-49,0,0
0.064375,2.5,1,1,5.28866e-49,0,0
0.065625,2.5,1,1,2.12732e-48,0,0
0.066875,2.5,1,1,2.12732e-48,0,0
0.068125,2.5,1,1,8.49876e-48,0,0
0.069375,2.5,1,1,8.49876e-48,0,0
0.070625,2.5,1,1,3.37202e-47,0,0
0.071875,2.5,1,1,3.37202e-47,0,0
0.073125,2.5,1,1,1.32866e-46,0,0
0.074375,2.5,1,1,1.32866e-46,0,0
0.075625,2.5,1,1,5.1987e-46,0,0
0.076875,2.5,1,1,5.1987e-46,0,0
0.078125,2.5,1,1,2.01981e-45,0,0
0.079375,2.5,1,1,2.01981e-45,0,0
0.080625,2.5,1,1,7.79177e-45,0,0
0.081875,2.5,1,1,7.79177e-45,0,0
0.083125,2.5,1,1,2.9843e-44,0,0
0.084375,2.5,1,1,2.9843e-44,0,0
0.085625,2.5,1,1,1.13475e-43,0,0
0.086875,2.5,1,1,1.13475e-43,0,0
0.088125,2.5,1,1,4.28338e-43,0,0
0.089375,2.5,1,1,4.28338e-43,0,0
0.090625,2.5,1,1,1.60498e-42,0,0
0.091875,2.5,1,1,1.60498e-42,0,0
0.093125,2.5,1,1,5.96927e-42,0,0
0.094375,2.5,1,1,5.96927e-42,0,0
0.095625,2.5,1,1,2.2035e-41,0,0
0.096875,2.5,1,1,2.2035e-41,0,0
0.098125,2.5,1,1,8.07263e-41,0,0
0.099375,2.5,1,1,8.07263e-41,0,0
0.100625,2.5,1,1,2.93493e-40,0,0
0.101875,2.5,1,1,2.93493e-40,0,0
0.103125,2.5,1,1,1.05884e-39,0,0
0.104375,2.5,1,1,1.05884e-39,0,0
0.105625,2.5,1,1,3.79036e-39,0,0
0.106875,2.5,1,1,3.79036e-39,0,0
0.108125,2.5,1,1,1.34623e-38,0,0
0.109375,2.5,1,1,1.34623e-38,0,0
0.110625,2.5,1,1,4.74362e-38,0,0
0.111875,2.5,1,1,4.74362e-38,0,0
0.113125,2.5,1,1,1.65815e-37,0,0
0.114375,2.5,1,1,1.65815e-37,0,0
0.115625,2.5,1,1,5.7494e-37,0,0
0.116875,2.5,1,1,5.7494e-37,0,0
0.118125,2.5,1,1,1.97731e-36,0,0
0.119375,2.5,1,1,1.97731e-36,0,0
0.120625,2.5,1,1,6.74438e-36,0,0
0.121875,2.5,1,1,6.74438e-36,0,0
0.123125,2.5,1,1,2.28133e-35,0,0
0.124375,2.5,1,1,2.28133e-35,0,0
0.125625,2.5,1,1,7.65197e-35,0,0
0.126875,2.5,1,1,7.65197e-35,0,0
0.128125,2.5,1,1,2.54482e-34,0,0
0.129375,2.5,1,1,2.54482e-34,0,0
0.130625,2.5,1,1,8.3907e-34,0,0
0.131875,2.5,1,1,8.3907e-34,0,0
0.133125,2.5,1,1,2.74253e-33,0,0
0.134375,2.5,1,1,2.74253e-33,0,0
0.135625,2.5,1,1,8.88528e-33,0,0
0.136875,2.5,1,1,8.88528e-33,0,0
0.138125,2.5,1,1,2.85304e-32,0,0
0.139375,2.5,1,1,2.85304e-32,0,0
0.140625,2.5,1,1,9.07841e-32,0,0
0.141875,2.5,1,1,9.07841e-32,0,0
0.143125,2.5,1,1,2.86235e-31,0,0
0.144375,2.5,1,1,2.86235e-31,0,0
0.145625,2.5,1,1,8.94103e-31,0,0
0.146875,2.5,1,1,8.94103e-31,0,0
0.148125,2.5,1,1,2.76659e-30,0,0
0.149375,2.5,1,1,2.76659e-30,0,0
0.150625,2.5,1,1,8.47863e-30,0,0
0.151875,2.5,1,1,8.47863e-30,0,0
0.153125,2.5,1,1,2.57314e-29,0,0
0.154375,2.5,1,1,2.57314e-29,0,0
0.155625,2.5,1,1,7.73183e-29,0,0
0.156875,2.5,1,1,7.73183e-29,0,0
0.158125,2.5,1,1,2.29988e-28,0,0
0.159375,2.5,1,1,2.29988e-28,0,0
0.160625,2.5,1,1,6.77095e-28,0,0
0.161875,2.5,1,1,6.77095e-28,0,0
0.163125,2.5,1,1,1.97256e-27,0,0
0.164375,2.5,1,1,1.97256e-27,0,0
0.165625,2.5,1,1,5.68536e-27,0,0
0.166875,2.5,1,1,5.68536e-27,0,0
0.168125,2.5,1,1,1.62085e-26,0,0
0.169375,2.5,1,1,1.62085e-26,0,0
0.170625,2.5,1,1,4.56976e-26,0,0
0.171875,2.5,1,1,4.56976e-26,0,0
0.173125,2.5,1,1,1.27385e-25,0,0
0.174375,2.5,1,1,1.27385e-25,0,0
0.175625,2.5,1,1,3.51013e-25,0,0
0.176875,2.5,1,1,3.51013e-25,0,0
0.178125,2.5,1,1,9.55924e-25,0,0
0.179375,2.5,1,1,9.55924e-25,0,0
0.180625,2.5,1,1,2.57232e-24,0,0
0.181875,2.5,1,1,2.57232e-24,0,0
0.183125,2.5,1,1,6.83816e-24,0,0
0.184375,2.5,1,1,6.83816e-24,0,0
0.185625,2.5,1,1,1.79542e-23,0,0
0.186875,2.5,1,1,1.79542e-23,0,0
0.188125,2.5,1,1,4.65474e-23,0,0
0.189375,2.5,1,1,4.65474e-23,0,0
0.190625,2.5,1,1,1.19126e-22,0,0
0.191875,2.5,1,1,1.19126e-22,0,0
0.193125,2.5,1,1,3.00852e-22,0,0
0.194375,2.5,1,1,3.00852e-22,0,0
0.195625,2.5,1,1,7.49516e-22,0,0
0.196875,2.5,1,1,7.49516e-22,0,0
0.198125,2.5,1,1,1.84135e-21,0,0
0.199375,2.5,1,1,1.84135e-21,0,0
0.200625,2.5,1,1,4.45979e-21,0,0
0.201875,2.5,1,1,4.45979e-21,0,0
0.203125,2.5,1,1,1.06497e-20,0,0
0.204375,2.5,1,1,1.06497e-20,0,0
0.205625,2.5,1,1,2.50896e-20,0,0
0.206875,2.5,1,1,2.50896e-20,0,0
0.208125,2.5,1,1,5.84157e-20,0,0
0.209375,2.5,1,1,5.84157e-20,0,0
0.210625,2.5,1,1,1.34863e-19,0,0
0.211875,2.5,1,1,1.34863e-19,0,0
0.213125,2.5,1,1,3.10483e-19,0,0
0.214375,2.5,1,1,3.10483e-19,0,0
0.215625,2.5,1,1,7.19639e-19,0,0
0.216875,2.5,1,1,7.19639e-19,0,0
0.218125,2.5,1,1,1.71471e-18,0,0
0.219375,2.5,1,1,1.71471e-18,0,0
0.220625,2.5,1,1,4.51096e-18,0,0
0.221875,2.5,1,1,4.51096e-18,0,0
0.223125,2.5,1,1,1.81928e-17,0,0
0.224375,2.5,1,1,1.81928e-17,0,0
0.225625,2.5,1,1,2.28891e-16,0,0
0.226875,2.5,1,1,2.28891e-16,0,0
0.228125,2.5,1,1,1.4967e-15,0,0
0.229375,2.5,1,1,1.4967e-15,0,0
0.230625,2.5,1,1,6.7813e-15,0,0
0.231875,2.5,1,1,6.7813e-15,0,0
0.233125,2.5,1,1,2.59643e-14,0,0
0.234375,2.5,1,1,2.59643e-14,0,0
0.235625,2.5,1,1,8.5486e-14,0,0
0.236875,2.5,1,1,8.5486e-14,0,0
0.238125,2.5,1,1,2.7487e-13,0,0
0.239375,2.5,1,1,2.7487e-13,0,0
0.240625,2.5,1,1,8.79331e-13,0,0
0.241875,2.5,1,1,8.79331e-13,0,0
0.243125,2.5,1,1,2.80123e-12,0,0
0.244375,2.5,1,1,2.80123e-12,0,0
0.245625,2.5,1,1,8.84936e-12,0,0
0.246875,2.5,1,1,8.84936e-12,0,0
0.248125,2.5,1,1,2.77947e-11,0,0
0.249375,2.5,1,1,2.77947e-11,0,0
0.250625,2.5,1,1,8.67922e-11,0,0
0.251875,2.5,1,1,8.67922e-11,0,0
0.253125,2.5,1,1,2.69486e-10,0,0
0.254375,2.5,1,1,2.69486e-10,0,0
0.255625,2.5,1,1,8.32101e-10,0,0
0.256875,2.5,1,1,8.32101e-10,0,0
0.258125,2.5,1,1,2.55526e-09,0,0
0.259375,2.5,1,1,2.55526e-09,0,0
0.260625,2.5,1,1,7.80486e-09,0,0
0.261875,2.5,1,1,7.80486e-09,0,0
0.263125,2.5,1,1,2.37154e-08,0,0
0.264375,2.5,1,1,2.37154e-08,0,0
0.265625,2.5,1,1,7.16998e-08,0,0
0.266875,2.5,1,1,7.16998e-08,0,0
0.268125,2.5,1,1,2.15778e-07,0,0
0.269375,2.5,1,1,2.15778e-07,0,0
0.270625,2.5,0.999999,0.999999,6.47161e-07,0,0
0.271875,2.5,0.999999,0.999999,6.47161e-07,0,0
0.273125,2.5,0.999998,0.999998,1.93921e-06,0,0
0.274375,2.5,0.999998,0.999998,1.93921e-06,0,0
0.275625,2.5,0.999994,0.999994,5.7883e-06,0,0
0.276875,2.5,0.999994,0.999994,5.7883e-06,0,0
0.278125,2.49999,0.999983,0.999986,1.57048e-05,0,0
0.279375,2.49999,0.999983,0.999986,1.57048e-05,0,0
0.280625,2.49998,0.99996,0.999969,3.52922e-05,0,0
0.281875,2.49998,0.99996,0.999969,3.52922e-05,0,0
0.283125,2.49994,0.999918,0.999941,6.97104e-05,0,0
0.284375,2.49994,0.999918,0.999941,6.97104e-05,0,0
0.285625,2.49989,0.99985,0.999892,0.00012659,0,0
0.286875,2.49989,0.99985,0.999892,0.00012659,0,0
0.288125,2.49982,0.999741,0.999814,0.000219633,0,0
0.289375,2.49982,0.999741,0.999814,0.000219633,0,0
0.290625,2.49969,0.999565,0.999688,0.000368194,0,0
0.291875,2.49969,0.999565,0.999688,0.000368194,0,0
0.293125,2.49949,0.999288,0.999491,0.000602286,0,0
0.294375,2.49949,0.999288,0.999491,0.000602286,0,0
0.295625,2.49919,0.998861,0.999186,0.000963107,0,0
0.296875,2.49919,0.998861,0.999186,0.000963107,0,0
0.298125,2.49873,0.998218,0.998724,0.00150749,0,0
0.299375,2.49873,0.998218,0.998724,0.00150749,0,0
0.300625,2.49806,0.997276,0.998052,0.00230602,0,0
0.301875,2.49806,0.997276,0.998052,0.00230602,0,0
0.303125,2.4971,0.995929,0.997087,0.00344783,0,0
0.304375,2.4971,0.995929,0.997087,0.00344783,0,0
0.305625,2.49576,0.99406,0.995749,0.00503429,0,0
0.306875,2.49576,0.99406,0.995749,0.00503429,0,0
0.308125,2.49395,0.99154,0.993947,0.00717648,0,0
0.309375,2.49395,0.99154,0.993947,0.00717648,0,0
0.310625,2.49158,0.988241,0.991582,0.00998904,0,0
0.311875,2.49158,0.988241,0.991582,0.00998904,0,0
0.313125,2.48855,0.984048,0.988574,0.0135753,0,0
0.314375,2.48855,0.984048,0.988574,0.0135753,0,0
0.315625,2.48481,0.978867,0.984853,0.0180236,0,0
0.316875,2.48481,0.978867,0.984853,0.0180236,0,0
0.318125,2.48028,0.972643,0.980375,0.0233941,0,0
0.319375,2.48028,0.972643,0.980375,0.0233941,0,0
0.320625,2.47497,0.965359,0.975122,0.0297172,0,0
0.321875,2.47497,0.965359,0.975122,0.0297172,0,0
0.323125,2.46886,0.957039,0.969111,0.0369888,0,0
0.324375,2.46886,0.957039,0.969111,0.0369888,0,0
0.325625,2.46199,0.94775,0.96238,0.0451728,0,0
0.326875,2.46199,0.94775,0.96238,0.0451728,0,0
0.328125,2.45443,0.937587,0.954995,0.0542055,0,0
0.329375,2.45443,0.937587,0.954995,0.0542055,0,0
0.330625,2.44623,0.926671,0.947038,0.0640014,0,0
0.331875,2.44623,0.926671,0.947038,0.0640014,0,0
0.333125,2.4375,0.915132,0.938596,0.0744643,0,0
0.334375,2.4375,0.915132,0.938596,0.0744643,0,0
0.335625,2.42833,0.903094,0.929749,0.0855017,0,0
0.336875,2.42833,0.903094,0.929749,0.0855017,0,0
0.338125,2.41875,0.890655,0.920575,0.0970404,0,0
0.339375,2.41875,0.890655,0.920575,0.0970404,0,0
0.340625,2.40881,0.877891,0.911127,0.109026,0,0
0.341875,2.40881,0.877891,0.911127,0.109026,0,0
0.343125,2.39855,0.864869,0.901449,0.121409,0,0
0.344375,2.39855,0.864869,0.901449,0.121409,0,0
0.345625,2.38812,0.851754,0.891659,0.134069,0,0
0.346875,2.38812,0.851754,0.891659,0.134069,0,0
0.348125,2.37757,0.838645,0.881829,0.146867,0,0
0.349375,2.37757,0.838645,0.881829,0.146867,0,0
0.350625,2.36696,0.825594,0.872,0.159779,0,0
0.351875,2.36696,0.825594,0.872,0.159779,0,0
0.353125,2.35629,0.812625,0.862188,0.172785,0,0
0.354375,2.35629,0.812625,0.862188,0.172785,0,0
0.355625,2.34558,0.799753,0.852405,0.185872,0,0
0.356875,2.34558,0.799753,0.852405,0.185872,0,0
0.358125,2.33483,0.786989,0.84266,0.199028,0,0
0.359375,2.33483,0.786989,0.84266,0.199028,0,0
0.360625,2.32407,0.774344,0.832962,0.212242,0,0
0.361875,2.32407,0.774344,0.832962,0.212242,0,0
0.363125,2.31328,0.761826,0.823316,0.225507,0,0
0.364375,2.31328,0.761826,0.823316,0.225507,0,0
0.365625,2.30249,0.749439,0.813728,0.238818,0,0
0.366875,2.30249,0.749439,0.813728,0.238818,0,0
0.368125,2.29168,0.737189,0.804201,0.252168,0,0
0.369375,2.29168,0.737189,0.804201,0.252168,0,0
0.370625,2.28088,0.72508,0.794738,0.265554,0,0
0.371875,2.28088,0.72508,0.794738,0.265554,0,0
0.373125,2.27007,0.713113,0.785342,0.278971,0,0
0.374375,2.27007,0.713113,0.785342,0.278971,0,0
0.375625,2.25927,0.70129,0.776015,0.292418,0,0
0.376875,2.25927,0.70129,0.776015,0.292418,0,0
0.378125,2.24847,0.689614,0.76676,0.305891,0,0
0.379375,2.24847,0.689614,0.76676,0.305891,0,0
0.380625,2.23768,0.678084,0.757576,0.319388,0,0
0.381875,2.23768,0.678084,0.757576,0.319388,0,0
0.383125,2.22689,0.666701,0.748466,0.332908,0,0
0.384375,2.22689,0.666701,0.748466,0.332908,0,0
0.385625,2.21611,0.655465,0.73943,0.346449,0,0
0.386875,2.21611,0.655465,0.73943,0.346449,0,0
0.388125,2.20535,0.644374,0.730469,0.36001,0,0
0.389375,2.20535,0.644374,0.730469,0.36001,0,0
0.390625,2.19459,0.633431,0.721583,0.37359,0,0
0.391875,2.19459,0.633431,0.721583,0.37359,0,0
0.393125,2.18385,0.622632,0.71277,0.387187,0,0
0.394375,2.18385,0.622632,0.71277,0.387187,0,0
0.395625,2.17312,0.61198,0.704032,0.400802,0,0
0.396875,2.17312,0.61198,0.704032,0.400802,0,0
0.398125,2.16241,0.601469,0.695368,0.414433,0,0
0.399375,2.16241,0.601469,0.695368,0.414433,0,0
0.400625,2.15172,0.591104,0.686781,0.428083,0,0
0.401875,2.15172,0.591104,0.686781,0.428083,0,0
0.403125,2.14103,0.580877,0.678267,0.441745,0,0
0.404375,2.14103,0.580877,0.678267,0.441745,0,0
0.405625,2.13037,0.570796,0.669833,0.455428,0,0
0.406875,2.13037,0.570796,0.669833,0.455428,0,0
0.408125,2.1197,0.560847,0.661469,0.46912,0,0
0.409375,2.1197,0.560847,0.661469,0.46912,0,0
0.410625,2.10906,0.551045,0.653186,0.482834,0,0
0.411875,2.10906,0.551045,0.653186,0.482834,0,0
0.413125,2.09843,0.541369,0.64497,0.496558,0,0
0.414375,2.09843,0.541369,0.64497,0.496558,0,0
0.415625,2.08782,0.531839,0.636835,0.510302,0,0
0.416875,2.08782,0.531839,0.636835,0.510302,0,0
0.418125,2.07721,0.522432,0.628765,0.524058,0,0
0.419375,2.07721,0.522432,0.628765,0.524058,0,0
0.420625,2.06664,0.513168,0.620777,0.537835,0,0
0.421875,2.06664,0.513168,0.620777,0.537835,0,0
0.423125,2.05606,0.504024,0.612852,0.551622,0,0
0.424375,2.05606,0.504024,0.612852,0.551622,0,0
0.425625,2.04551,0.495019,0.605007,0.565432,0,0
0.426875,2.04551,0.495019,0.605007,0.565432,0,0
0.428125,2.03496,0.486131,0.597224,0.579256,0,0
0.429375,2.03496,0.486131,0.597224,0.579256,0,0
0.430625,2.02444,0.477377,0.589518,0.593101,0,0
0.431875,2.02444,0.477377,0.589518,0.593101,0,0
0.433125,2.01392,0.46874,0.581876,0.606965,0,0
0.434375,2.01392,0.46874,0.581876,0.606965,0,0
0.435625,2.00341,0.460229,0.574307,0.620851,0,0
0.436875,2.00341,0.460229,0.574307,0.620851,0,0
0.438125,1.9929,0.451832,0.566802,0.634761,0,0
0.439375,1.9929,0.451832,0.566802,0.634761,0,0
0.440625,1.98241,0.443555,0.559364,0.648699,0,0
0.441875,1.98241,0.443555,0.559364,0.648699,0,0
0.443125,1.97191,0.435387,0.551986,0.662666,0,0
0.444375,1.97191,0.435387,0.551986,0.662666,0,0
0.445625,1.96142,0.427332,0.544671,0.676666,0,0
0.446875,1.96142,0.427332,0.544671,0.676666,0,0
0.448125,1.95094,0.419386,0.537416,0.690706,0,0
0.449375,1.95094,0.419386,0.537416,0.690706,0,0
0.450625,1.94044,0.41154,0.530214,0.704764,0,0
0.451875,1.94044,0.41154,0.530214,0.704764,0,0
0.453125,1.92998,0.40383,0.5231,0.718855,0,0
0.454375,1.92998,0.40383,0.5231,0.718855,0,0
0.455625,1.91955,0.396228,0.516042,0.732933,0,0
0.456875,1.91955,0.396228,0.516042,0.732933,0,0
0.458125,1.90913,0.38876,0.509079,0.746967,0,0
0.459375,1.90913,0.38876,0.509079,0.746967,0,0
0.460625,1.89882,0.381453,0.502224,0.76102,0,0
0.461875,1.89882,0.381453,0.502224,0.76102,0,0
0.463125,1.88851,0.374254,0.495435,0.775,0,0
0.464375,1.88851,0.374254,0.495435,0.775,0,0
0.465625,1.87835,0.367239,0.488779,0.788892,0,0
0.466875,1.87835,0.367239,0.488779,0.788892,0,0
0.468125,1.86823,0.360375,0.48224,0.802672,0,0
0.469375,1.86823,0.360375,0.48224,0.802672,0,0
0.470625,1.85827,0.35369,0.475834,0.816349,0,0
0.471875,1.85827,0.35369,0.475834,0.816349,0,0
0.473125,1.84841,0.347172,0.469555,0.829876,0,0
0.474375,1.84841,0.347172,0.469555,0.829876,0,0
0.475625,1.83881,0.340876,0.463447,0.843156,0,0
0.476875,1.83881,0.340876,0.463447,0.843156,0,0
0.478125,1.82939,0.334825,0.457564,0.856122,0,0
0.479375,1.82939,0.334825,0.457564,0.856122,0,0
0.480625,1.82029,0.32907,0.451947,0.868647,0,0
0.481875,1.82029,0.32907,0.451947,0.868647,0,0
0.483125,1.81185,0.323693,0.446634,0.880513,0,0
0.484375,1.81185,0.323693,0.446634,0.880513,0,0
0.485625,1.80397,0.318793,0.441793,0.891479,0,0
0.486875,1.80397,0.318793,0.441793,0.891479,0,0
0.488125,1.79684,0.31447,0.437531,0.901272,0,0
0.489375,1.79684,0.31447,0.437531,0.901272,0,0
0.490625,1.79089,0.310815,0.433884,0.909642,0,0
0.491875,1.79089,0.310815,0.433884,0.909642,0,0
0.493125,1.78619,0.307891,0.430932,0.916406,0,0
0.494375,1.78619,0.307891,0.430932,0.916406,0,0
0.495625,1.78247,0.305705,0.428767,0.921492,0,0
0.496875,1.78247,0.305705,0.428767,0.921492,0,0
0.498125,1.7799,0.304221,0.427301,0.92497,0,0
0.499375,1.7799,0.304221,0.427301,0.92497,0,0
0.500625,1.77854,0.303341,0.426391,0.927029,0,0
0.501875,1.77854,0.303341,0.426391,0.927029,0,0
0.503125,1.7779,0.302926,0.42596,0.928009,0,0
0.504375,1.7779,0.302926,0.42596,0.928009,0,0
0.505625,1.77762,0.302792,0.425839,0.928322,0,0
0.506875,1.77762,0.302792,0.425839,0.928322,0,0
0.508125,1.77759,0.302777,0.425826,0.928355,0,0
0.509375,1.77759,0.302777,0.425826,0.928355,0,0
0.510625,1.77761,0.302786,0.425833,0.928334,0,0
0.511875,1.77761,0.302786,0.425833,0.928334,0,0
0.513125,1.77767,0.302811,0.425854,0.928274,0,0
0.514375,1.77767,0.302811,0.425854,0.928274,0,0
0.515625,1.77774,0.302838,0.425876,0.928205,0,0
0.516875,1.77774,0.302838,0.425876,0.928205,0,0
0.518125,1.7778,0.302868,0.425902,0.928135,0,0
0.519375,1.7778,0.302868,0.425902,0.928135,0,0
0.520625,1.77788,0.302908,0.425941,0.928042,0,0
0.521875,1.77788,0.302908,0.425941,0.928042,0,0
0.523125,1.77798,0.302967,0.425999,0.927902,0,0
0.524375,1.77798,0.302967,0.425999,0.927902,0,0
0.525625,1.77806,0.303017,0.426051,0.927783,0,0
0.526875,1.77806,0.303017,0.426051,0.927783,0,0
0.528125,1.7781,0.303037,0.426068,0.927735,0,0
0.529375,1.7781,0.303037,0.426068,0.927735,0,0
0.530625,1.77813,0.303041,0.426066,0.927722,0,0
0.531875,1.77813,0.303041,0.426066,0.927722,0,0
0.533125,1.77814,0.303038,0.42606,0.927727,0,0
0.534375,1.77814,0.303038,0.42606,0.927727,0,0
0.535625,1.77817,0.303048,0.426067,0.927705,0,0
0.536875,1.77817,0.303048,0.426067,0.927705,0,0
0.538125,1.77823,0.303083,0.426102,0.927616,0,0
0.539375,1.77823,0.303083,0.426102,0.927616,0,0
0.540625,1.77829,0.303107,0.426122,0.927561,0,0
0.541875,1.77829,0.303107,0.426122,0.927561,0,0
0.543125,1.77826,0.303087,0.426099,0.927608,0,0
0.544375,1.77826,0.303087,0.426099,0.927608,0,0
0.545625,1.77828,0.303087,0.426097,0.927606,0,0
0.546875,1.77828,0.303087,0.426097,0.927606,0,0
0.548125,1.77832,0.303094,0.426096,0.92759,0,0
0.549375,1.77832,0.303094,0.426096,0.92759,0,0
0.550625,1.77832,0.303077,0.426071,0.927633,0,0
0.551875,1.77832,0.303077,0.426071,0.927633,0,0
0.553125,1.77834,0.303076,0.426066,0.927631,0,0
0.554375,1.77834,0.303076,0.426066,0.927631,0,0
0.555625,1.77837,0.303081,0.426065,0.927619,0,0
0.556875,1.77837,0.303081,0.426065,0.927619,0,0
0.558125,1.77842,0.303088,0.426064,0.927601,0,0
0.559375,1.77842,0.303088,0.426064,0.927601,0,0
0.560625,1.77848,0.303099,0.426065,0.927577,0,0
0.561875,1.77848,0.303099,0.426065,0.927577,0,0
0.563125,1.77854,0.303114,0.426071,0.92754,0,0
0.564375,1.77854,0.303114,0.426071,0.92754,0,0
0.565625,1.77864,0.303135,0.426077,0.927496,0,0
0.566875,1.77864,0.303135,0.426077,0.927496,0,0
0.568125,1.77866,0.303118,0.426048,0.927534,0,0
0.569375,1.77866,0.303118,0.426048,0.927534,0,0
0.570625,1.77873,0.303125,0.426043,0.927516,0,0
0.571875,1.77873,0.303125,0.426043,0.927516,0,0
0.573125,1.77881,0.303143,0.426047,0.92747,0,0
0.574375,1.77881,0.303143,0.426047,0.92747,0,0
0.575625,1.77893,0.303166,0.426052,0.927418,0,0
0.576875,1.77893,0.303166,0.426052,0.927418,0,0
0.578125,1.77896,0.303143,0.426012,0.927466,0,0
0.579375,1.77896,0.303143,0.426012,0.927466,0,0
0.580625,1.77903,0.303148,0.426001,0.92745,0,0
0.581875,1.77903,0.303148,0.426001,0.92745,0,0
0.583125,1.77913,0.303159,0.425993,0.92742,0,0
0.584375,1.77913,0.303159,0.425993,0.92742,0,0
0.585625,1.77925,0.303173,0.425984,0.927391,0,0
0.586875,1.77925,0.303173,0.425984,0.927391,0,0
0.588125,1.77936,0.303161,0.425941,0.92742,0,0
0.589375,1.77936,0.303161,0.425941,0.92742,0,0
0.590625,1.77951,0.303171,0.42592,0.927393,0,0
0.591875,1.77951,0.303171,0.42592,0.927393,0,0
0.593125,1.77968,0.303159,0.425862,0.927434,0,0
0.594375,1.77968,0.303159,0.425862,0.927434,0,0
0.595625,1.77993,0.303183,0.425837,0.927376,0,0
0.596875,1.77993,0.303183,0.425837,0.927376,0,0
0.598125,1.78021,0.303154,0.425726,0.92747,0,0
0.599375,1.78021,0.303154,0.425726,0.92747,0,0
0.600625,1.7807,0.30321,0.425689,0.927337,0,0
0.601875,1.7807,0.30321,0.425689,0.927337,0,0
0.603125,1.7813,0.303135,0.42544,0.927546,0,0
0.604375,1.7813,0.303135,0.42544,0.927546,0,0
0.605625,1.78241,0.303247,0.425332,0.92728,0,0
0.606875,1.78241,0.303247,0.425332,0.92728,0,0
0.608125,1.78388,0.303096,0.42477,0.92761,0,0
0.609375,1.78388,0.303096,0.42477,0.92761,0,0
0.610625,1.78657,0.303257,0.424355,0.927246,0,0
0.611875,1.78657,0.303257,0.424355,0.927246,0,0
0.613125,1.7905,0.303125,0.423242,0.927474,0,0
0.614375,1.7905,0.303125,0.423242,0.927474,0,0
0.615625,1.79687,0.303203,0.421849,0.927337,0,0
0.616875,1.79687,0.303203,0.421849,0.927337,0,0
0.618125,1.80649,0.303183,0.419574,0.927375,0,0
0.619375,1.80649,0.303183,0.419574,0.927375,0,0
0.620625,1.82083,0.303189,0.416279,0.927383,0,0
0.621875,1.82083,0.303189,0.416279,0.927383,0,0
0.623125,1.84157,0.303194,0.411597,0.927413,0,0
0.624375,1.84157,0.303194,0.411597,0.927413,0,0
0.625625,1.87073,0.303196,0.405184,0.927479,0,0
0.626875,1.87073,0.303196,0.405184,0.927479,0,0
0.628125,1.91058,0.303198,0.396736,0.927597,0,0
0.629375,1.91058,0.303198,0.396736,0.927597,0,0
0.630625,1.96343,0.303199,0.386057,0.927778,0,0
0.631875,1.96343,0.303199,0.386057,0.927778,0,0
0.633125,2.03149,0.303201,0.373127,0.92803,0,0
0.634375,2.03149,0.303201,0.373127,0.92803,0,0
0.635625,2.11645,0.303206,0.358154,0.928359,0,0
0.636875,2.11645,0.303206,0.358154,0.928359,0,0
0.638125,2.21911,0.303224,0.341605,0.928711,0,0
0.639375,2.21911,0.303224,0.341605,0.928711,0,0
0.640625,2.33859,0.303159,0.324082,0.928732,0,0
0.641875,2.33859,0.303159,0.324082,0.928732,0,0
0.643125,2.47068,0.303014,0.30661,0.927688,0,0
0.644375,2.47068,0.303014,0.30661,0.927688,0,0
0.645625,2.58914,0.303218,0.292778,0.926997,0,0
0.646875,2.58914,0.303218,0.292778,0.926997,0,0
0.648125,2.67824,0.303217,0.283037,0.927167,0,0
0.649375,2.67824,0.303217,0.283037,0.927167,0,0
0.650625,2.74238,0.303206,0.276407,0.927309,0,0
0.651875,2.74238,0.303206,0.276407,0.927309,0,0
0.653125,2.78639,0.303203,0.272039,0.927362,0,0
0.654375,2.78639,0.303203,0.272039,0.927362,0,0
0.655625,2.81527,0.303204,0.269249,0.927388,0,0
0.656875,2.81527,0.303204,0.269249,0.927388,0,0
0.658125,2.83343,0.303206,0.267525,0.927396,0,0
0.659375,2.83343,0.303206,0.267525,0.927396,0,0
0.660625,2.84439,0.303208,0.266497,0.927396,0,0
0.661875,2.84439,0.303208,0.266497,0.927396,0,0
0.663125,2.8507,0.303211,0.26591,0.927395,0,0
0.664375,2.8507,0.303211,0.26591,0.927395,0,0
0.665625,2.85414,0.303214,0.265592,0.927396,0,0
0.666875,2.85414,0.303214,0.265592,0.927396,0,0
0.668125,2.85588,0.303216,0.265431,0.9274,0,0
0.669375,2.85588,0.303216,0.265431,0.9274,0,0
0.670625,2.85666,0.303216,0.265359,0.927408,0,0
0.671875,2.85666,0.303216,0.265359,0.927408,0,0
0.673125,2.85693,0.303216,0.265333,0.927421,0,0
0.674375,2.85693,0.303216,0.265333,0.927421,0,0
0.675625,2.85697,0.303215,0.265329,0.927439,0,0
0.676875,2.85697,0.303215,0.265329,0.927439,0,0
0.678125,2.85694,0.303216,0.265333,0.927441,0,0
0.679375,2.85694,0.303216,0.265333,0.927441,0,0
0.680625,2.85684,0.30322,0.265346,0.92744,0,0
0.681875,2.85684,0.30322,0.265346,0.92744,0,0
0.683125,2.85665,0.303224,0.265366,0.927441,0,0
0.684375,2.85665,0.303224,0.265366,0.927441,0,0
0.685625,2.85644,0.303228,0.26539,0.927439,0,0
0.686875,2.85644,0.303228,0.26539,0.927439,0,0
0.688125,2.85628,0.303231,0.265407,0.92744,0,0
0.689375,2.85628,0.303231,0.265407,0.92744,0,0
0.690625,2.85616,0.303233,0.265419,0.927446,0,0
0.691875,2.85616,0.303233,0.265419,0.927446,0,0
0.693125,2.85607,0.303232,0.265427,0.927458,0,0
0.694375,2.85607,0.303232,0.265427,0.927458,0,0
0.695625,2.856,0.303231,0.265433,0.927472,0,0
0.696875,2.856,0.303231,0.265433,0.927472,0,0
0.698125,2.85592,0.303231,0.26544,0.927486,0,0
0.699375,2.85592,0.303231,0.26544,0.927486,0,0
0.700625,2.85589,0.303234,0.265446,0.927489,0,0
0.701875,2.85589,0.303234,0.265446,0.927489,0,0
0.703125,2.85585,0.303236,0.265452,0.927494,0,0
0.704375,2.85585,0.303236,0.265452,0.927494,0,0
0.705625,2.85581,0.30324,0.265459,0.927494,0,0
0.706875,2.85581,0.30324,0.265459,0.927494,0,0
0.708125,2.85579,0.303245,0.265465,0.92749,0,0
0.709375,2.85579,0.303245,0.265465,0.92749,0,0
0.710625,2.85578,0.303251,0.265471,0.927487,0,0
0.711875,2.85578,0.303251,0.265471,0.927487,0,0
0.713125,2.85576,0.303252,0.265474,0.927492,0,0
0.714375,2.85576,0.303252,0.265474,0.927492,0,0
0.715625,2.85574,0.30325,0.265474,0.927507,0,0
0.716875,2.85574,0.30325,0.265474,0.927507,0,0
0.718125,2.85571,0.303246,0.265473,0.927532,0,0
0.719375,2.85571,0.303246,0.265473,0.927532,0,0
0.720625,2.85571,0.303249,0.265476,0.927531,0,0
0.721875,2.85571,0.303249,0.265476,0.927531,0,0
0.723125,2.8557,0.303249,0.265477,0.927534,0,0
0.724375,2.8557,0.303249,0.265477,0.927534,0,0
0.725625,2.85569,0.303248,0.265477,0.92754,0,0
0.726875,2.85569,0.303248,0.265477,0.92754,0,0
0.728125,2.85569,0.303248,0.265478,0.927538,0,0
0.729375,2.85569,0.303248,0.265478,0.927538,0,0
0.730625,2.8557,0.303255,0.265482,0.927511,0,0
0.731875,2.8557,0.303255,0.265482,0.927511,0,0
0.733125,2.85572,0.303263,0.265487,0.927475,0,0
0.734375,2.85572,0.303263,0.265487,0.927475,0,0
0.735625,2.85569,0.303251,0.26548,0.927485,0,0
0.736875,2.85569,0.303251,0.26548,0.927485,0,0
0.738125,2.85563,0.30323,0.265467,0.927489,0,0
0.739375,2.85563,0.30323,0.265467,0.927489,0,0
0.740625,2.85557,0.303205,0.26545,0.927417,0,0
0.741875,2.85557,0.303205,0.26545,0.927417,0,0
0.743125,2.85543,0.303152,0.265417,0.927226,0,0
0.744375,2.85543,0.303152,0.265417,0.927226,0,0
0.745625,2.85505,0.303009,0.265328,0.926815,0,0
0.746875,2.85505,0.303009,0.265328,0.926815,0,0
0.748125,2.85412,0.302666,0.265114,0.925809,0,0
0.749375,2.85412,0.302666,0.265114,0.925809,0,0
0.750625,2.85192,0.301854,0.264606,0.923308,0,0
0.751875,2.85192,0.301854,0.264606,0.923308,0,0
0.753125,2.84651,0.299875,0.26337,0.917255,0,0
0.754375,2.84651,0.299875,0.26337,0.917255,0,0
0.755625,2.83322,0.295078,0.260374,0.902638,0,0
0.756875,2.83322,0.295078,0.260374,0.902638,0,0
0.758125,2.80071,0.28371,0.253248,0.86728,0,0
0.759375,2.80071,0.28371,0.253248,0.86728,0,0
0.760625,2.72187,0.257954,0.236927,0.782878,0,0
0.761875,2.72187,0.257954,0.236927,0.782878,0,0
0.763125,2.53451,0.205497,0.202699,0.590865,0,0
0.764375,2.53451,0.205497,0.202699,0.590865,0,0
0.765625,2.21662,0.137657,0.155255,0.259214,0,0
0.766875,2.21662,0.137657,0.155255,0.259214,0,0
0.768125,2.05068,0.108997,0.132879,0.0674,0,0
0.769375,2.05068,0.108997,0.132879,0.0674,0,0
0.770625,2.01027,0.101871,0.126688,0.0143693,0,0
0.771875,2.01027,0.101871,0.126688,0.0143693,0,0
0.773125,2.00205,0.100376,0.125342,0.0029044,0,0
0.774375,2.00205,0.100376,0.125342,0.0029044,0,0
0.775625,2.00041,0.100075,0.125068,0.000579872,0,0
0.776875,2.00041,0.100075,0.125068,0.000579872,0,0
0.778125,2.00008,0.100015,0.125013,0.000115138,0,0
0.779375,2.00008,0.100015,0.125013,0.000115138,0,0
0.780625,2.00001,0.100002,0.125003,2.14504e-05,0,0
0.781875,2.00001,0.100002,0.125003,2.14504e-05,0,0
0.783125,2,0.1,0.125,3.53623e-06,0,0
0.784375,2,0.1,0.125,3.53623e-06,0,0
0.785625,2,0.1,0.125,5.38497e-07,0,0
0.786875,2,0.1,0.125,5.38497e-07,0,0
0.788125,2,0.1,0.125,8.15265e-08,0,0
0.789375,2,0.1,0.125,8.15265e-08,0,0
0.790625,2,0.1,0.125,1.23416e-08,0,0
0.791875,2,0.1,0.125,1.23416e-08,0,0
0.793125,2,0.1,0.125,1.8712e-09,0,0
0.794375,2,0.1,0.125,1.8712e-09,0,0
0.795625,2,0.1,0.125,2.83783e-10,0,0
0.796875,2,0.1,0.125,2.83783e-10,0,0
0.798125,2,0.1,0.125,4.30323e-11,0,0
0.799375,2,0.1,0.125,4.30323e-11,0,0
0.800625,2,0.1,0.125,6.52388e-12,0,0
0.801875,2,0.1,0.125,6.52388e-12,0,0
0.803125,2,0.1,0.125,9.8829e-13,0,0
0.804375,2,0.1,0.125,9.8829e-13,0,0
0.805625,2,0.1,0.125,1.49539e-13,0,0
0.806875,2,0.1,0.125,1.49539e-13,0,0
0.808125,2,0.1,0.125,2.17285e-14,0,0
0.809375,2,0.1,0.125,2.17285e-14,0,0
0.810625,2,0.1,0.125,2.49453e-15,0,0
0.811875,2,0.1,0.125,2.49453e-15,0,0
0.813125,2,0.1,0.125,-3.63899e-16,0,0
0.814375,2,0.1,0.125,-3.63899e-16,0,0
0.815625,2,0.1,0.125,-8.69854e-16,0,0
0.816875,2,0.1,0.125,-8.69854e-16,0,0
0.818125,2,0.1,0.125,1.59676e-16,0,0
0.819375,2,0.1,0.125,1.59676e-16,0,0
0.820625,2,0.1,0.125,9.66082e-16,0,0
0.821875,2,0.1,0.125,9.66082e-16,0,0
0.823125,2,0.1,0.125,7.0417e-16,0,0
0.824375,2,0.1,0.125,7.0417e-16,0,0
0.825625,2,0.1,0.125,3.78607e-16,0,0
0.826875,2,0.1,0.125,3.78607e-16,0,0
0.828125,2,0.1,0.125,6.61098e-16,0,0
0.829375,2,0.1,0.125,6.61098e-16,0,0
0.830625,2,0.1,0.125,1.23648e-15,0,0
0.831875,2,0.1,0.125,1.23648e-15,0,0
0.833125,2,0.1,0.125,1.18232e-15,0,0
0.834375,2,0.1,0.125,1.18232e-15,0,0
0.835625,2,0.1,0.125,1.96239e-15,0,0
0.836875,2,0.1,0.125,1.96239e-15,0,0
0.838125,2,0.1,0.125,2.67849e-15,0,0
0.839375,2,0.1,0.125,2.67849e-15,0,0
0.840625,2,0.1,0.125,2.24708e-15,0,0
0.841875,2,0.1,0.125,2.24708e-15,0,0
0.843125,2,0.1,0.125,1.99923e-15,0,0
0.844375,2,0.1,0.125,1.99923e-15,0,0
0.845625,2,0.1,0.125,2.3431e-15,0,0
0.846875,2,0.1,0.125,2.3431e-15,0,0
0.848125,2,0.1,0.125,2.37518e-15,0,0
0.849375,2,0.1,0.125,2.37518e-15,0,0
0.850625,2,0.1,0.125,1.58053e-15,0,0
0.851875,2,0.1,0.125,1.58053e-15,0,0
0.853125,2,0.1,0.125,7.13604e-16,0,0
0.854375,2,0.1,0.125,7.13604e-16,0,0
0.855625,2,0.1,0.125,-2.75283e-16,0,0
0.856875,2,0.1,0.125,-2.75283e-16,0,0
0.858125,2,0.1,0.125,-8.09184e-16,0,0
0.859375,2,0.1,0.125,-8.09184e-16,0,0
0.860625,2,0.1,0.125,-5.09648e-16,0,0
0.861875,2,0.1,0.125,-5.09648e-16,0,0
0.863125,2,0.1,0.125,-7.25075e-16,0,0
0.864375,2,0.1,0.125,-7.25075e-16,0,0
0.865625,2,0.1,0.125,-9.0186e-16,0,0
0.866875,2,0.1,0.125,-9.0186e-16,0,0
0.868125,2,0.1,0.125,-8.19013e-16,0,0
0.869375,2,0.1,0.125,-8.19013e-16,0,0
0.870625,2,0.1,0.125,-8.57639e-16,0,0
0.871875,2,0.1,0.125,-8.57639e-16,0,0
0.873125,2,0.1,0.125,-3.61538e-16,0,0
0.874375,2,0.1,0.125,-3.61538e-16,0,0
0.875625,2,0.1,0.125,6.37237e-16,0,0
0.876875,2,0.1,0.125,6.37237e-16,0,0
0.878125,2,0.1,0.125,1.40043e-15,0,0
0.879375,2,0.1,0.125,1.40043e-15,0,0
0.880625,2,0.1,0.125,1.30454e-15,0,0
0.881875,2,0.1,0.125,1.30454e-15,0,0
0.883125,2,0.1,0.125,2.04311e-16,0,0
0.884375,2,0.1,0.125,2.04311e-16,0,0
0.885625,2,0.1,0.125,-7.22978e-16,0,0
0.886875,2,0.1,0.125,-7.22978e-16,0,0
0.888125,2,0.1,0.125,-9.86173e-16,0,0
0.889375,2,0.1,0.125,-9.86173e-16,0,0
0.890625,2,0.1,0.125,-9.63889e-16,0,0