x,T,p,rho,U_0,U_1,U_2
0.000625,2.5,1,1,-8.60732e-17,0,0
0.001875,2.5,1,1,-8.60732e-17,0,0
0.003125,2.5,1,1,-4.26676e-17,0,0
0.004375,2.5,1,1,-4.26676e-17,0,0
0.005625,2.5,1,1,2.85682e-17,0,0
0.006875,2.5,1,1,2.85682e-17,0,0
0.008125,2.5,1,1,-2.23266e-16,0,0
0.009375,2.5,1,1,-2.23266e-16,0,0
0.010625,2.5,1,1,-3.49858e-16,0,0
0.011875,2.5,1,1,-3.49858e-16,0,0
0.013125,2.5,1,1,-1.76968e-16,0,0
0.014375,2.5,1,1,-1.76968e-16,0,0
0.015625,2.5,1,1,1.83186e-16,0,0
0.016875,2.5,1,1,1.83186e-16,0,0
0.018125,2.5,1,1,3.70634e-16,0,0
0.019375,2.5,1,1,3.70634e-16,0,0
0.020625,2.5,1,1,1.55848e-16,0,0
0.021875,2.5,1,1,1.55848e-16,0,0
0.023125,2.5,1,1,2.16337e-16,0,0
0.024375,2.5,1,1,2.16337e-16,0,0
0.025625,2.5,1,1,-8.57526e-17,0,0
0.026875,2.5,1,1,-8.57526e-17,0,0
0.028125,2.5,1,1,-5.21924e-16,0,0
0.029375,2.5,1,1,-5.21924e-16,0,0
0.030625,2.5,1,1,-1.97235e-16,0,0
0.031875,2.5,1,1,-1.97235e-16,0,0
0.033125,2.5,1,1,-3.01246e-16,0,0
0.034375,2.5,1,1,-3.01246e-16,0,0
0.035625,2.5,1,1,-3.56647e-16,0,0
0.036875,2.5,1,1,-3.56647e-16,0,0
0.038125,2.5,1,1,-3.92371e-16,0,0
0.039375,2.5,1,1,-3.92371e-16,0,0
0.040625,2.5,1,1,-9.05232e-17,0,0
0.041875,2.5,1,1,-9.05232e-17,0,0
0.043125,2.5,1,1,4.06679e-17,0,0
0.044375,2.5,1,1,4.06679e-17,0,0
0.045625,2.5,1,1,8.05328e-17,0,0
0.046875,2.5,1,1,8.05328e-17,0,0
0.048125,2.5,1,1,8.32957e-17,0,0
0.049375,2.5,1,1,8.32957e-17,0,0
0.050625,2.5,1,1,-1.70253e-16,0,0
0.051875,2.5,1,1,-1.70253e-16,0,0
0.053125,2.5,1,1,-5.83895e-16,0,0
0.054375,2.5,1,1,-5.83895e-16,0,0
0.055625,2.5,1,1,-6.61e-16,0,0
0.056875,2.5,1,1,-6.61e-16,0,0
0.058125,2.5,1,1,-5.47914e-16,0,0
0.059375,2.5,1,1,-5.47914e-16,0,0
0.060625,2.5,1,1,-4.07111e-16,0,0
0.061875,2.5,1,1,-4.07111e-16,0,0
0.063125,2.5,1,1,-4.06797e-16,0,0
0.064375,2.5,1,1,-4.06797e-16,0,0
0.065625,2.5,1,1,-3.89789e-16,0,0
0.066875,2.5,1,1,-3.89789e-16,0,0
0.068125,2.5,1,1,-1.45391e-16,0,0
0.069375,2.5,1,1,-1.45391e-16,0,0
0.070625,2.5,1,1,-5.50219e-16,0,0
0.071875,2.5,1,1,-5.50219e-16,0,0
0.073125,2.5,1,1,-7.50821e-16,0,0
0.074375,2.5,1,1,-7.50821e-16,0,0
0.075625,2.5,1,1,-9.75072e-16,0,0
0.076875,2.5,1,1,-9.75072e-16,0,0
0.078125,2.5,1,1,-5.07978e-16,0,0
0.079375,2.5,1,1,-5.07978e-16,0,0
0.080625,2.5,1,1,-5.46233e-16,0,0
0.081875,2.5,1,1,-5.46233e-16,0,0
0.083125,2.5,1,1,-7.06576e-16,0,0
0.084375,2.5,1,1,-7.06576e-16,0,0
0.085625,2.5,1,1,-4.70808e-16,0,0
0.086875,2.5,1,1,-4.70808e-16,0,0
0.088125,2.5,1,1,-3.28685e-16,0,0
0.089375,2.5,1,1,-3.28685e-16,0,0
0.090625,2.5,1,1,-2.44284e-16,0,0
0.091875,2.5,1,1,-2.44284e-16,0,0
0.093125,2.5,1,1,-5.20898e-16,0,0
0.094375,2.5,1,1,-5.20898e-16,0,0
0.095625,2.5,1,1,-5.99778e-16,0,0
0.096875,2.5,1,1,-5.99778e-16,0,0
0.098125,2.5,1,1,-4.52049e-16,0,0
0.099375,2.5,1,1,-4.52049e-16,0,0
0.100625,2.5,1,1,-5.43338e-16,0,0
0.101875,2.5,1,1,-5.43338e-16,0,0
0.103125,2.5,1,1,-9.40905e-16,0,0
0.104375,2.5,1,1,-9.40905e-16,0,0
0.105625,2.5,1,1,-1.11502e-15,0,0
0.106875,2.5,1,1,-1.11502e-15,0,0
0.108125,2.5,1,1,-1.06011e-15,0,0
0.109375,2.5,1,1,-1.06011e-15,0,0
0.110625,2.5,1,1,-1.04283e-15,0,0
0.111875,2.5,1,1,-1.04283e-15,0,0
0.113125,2.5,1,1,-1.12881e-15,0,0
0.114375,2.5,1,1,-1.12881e-15,0,0
0.115625,2.5,1,1,-1.4824e-15,0,0
0.116875,2.5,1,1,-1.4824e-15,0,0
0.118125,2.5,1,1,-1.25099e-15,0,0
0.119375,2.5,1,1,-1.25099e-15,0,0
0.120625,2.5,1,1,-1.13382e-15,0,0
0.121875,2.5,1,1,-1.13382e-15,0,0
0.123125,2.5,1,1,-1.17338e-15,0,0
0.124375,2.5,1,1,-1.17338e-15,0,0
0.125625,2.5,1,1,-9.32331e-16,0,0
0.126875,2.5,1,1,-9.32331e-16,0,0
0.128125,2.5,1,1,-1.72697e-17,0,0
0.129375,2.5,1,1,-1.72697e-17,0,0
0.130625,2.5,1,1,1.80196e-15,0,0
0.131875,2.5,1,1,1.80196e-15,0,0
0.133125,2.5,1,1,6.06799e-15,0,0
0.134375,2.5,1,1,6.06799e-15,0,0
0.135625,2.5,1,1,1.66523e-14,0,0
0.136875,2.5,1,1,1.66523e-14,0,0
0.138125,2.5,1,1,4.1383e-14,0,0
0.139375,2.5,1,1,4.1383e-14,0,0
0.140625,2.5,1,1,1.03951e-13,0,0
0.141875,2.5,1,1,1.03951e-13,0,0
0.143125,2.5,1,1,2.59084e-13,0,0
0.144375,2.5,1,1,2.59084e-13,0,0
0.145625,2.5,1,1,6.39952e-13,0,0
0.146875,2.5,1,1,6.39952e-13,0,0
0.148125,2.5,1,1,1.57312e-12,0,0
0.149375,2.5,1,1,1.57312e-12,0,0
0.150625,2.5,1,1,3.85189e-12,0,0
0.151875,2.5,1,1,3.85189e-12,0,0
0.153125,2.5,1,1,9.39429e-12,0,0
0.154375,2.5,1,1,9.39429e-12,0,0
0.155625,2.5,1,1,2.28297e-11,0,0
0.156875,2.5,1,1,2.28297e-11,0,0
0.158125,2.5,1,1,5.52833e-11,0,0
0.159375,2.5,1,1,5.52833e-11,0,0
0.160625,2.5,1,1,1.33411e-10,0,0
0.161875,2.5,1,1,1.33411e-10,0,0
0.163125,2.5,1,1,3.20872e-10,0,0
0.164375,2.5,1,1,3.20872e-10,0,0
0.165625,2.5,1,1,7.69212e-10,0,0
0.166875,2.5,1,1,7.69212e-10,0,0
0.168125,2.5,1,1,1.83815e-09,0,0
0.169375,2.5,1,1,1.83815e-09,0,0
0.170625,2.5,1,1,4.37908e-09,0,0
0.171875,2.5,1,1,4.37908e-09,0,0
0.173125,2.5,1,1,1.04019e-08,0,0
0.174375,2.5,1,1,1.04019e-08,0,0
0.175625,2.5,1,1,2.46398e-08,0,0
0.176875,2.5,1,1,2.46398e-08,0,0
0.178125,2.5,1,1,5.82148e-08,0,0
0.179375,2.5,1,1,5.82148e-08,0,0
0.180625,2.5,1,1,1.37207e-07,0,0
0.181875,2.5,1,1,1.37207e-07,0,0
0.183125,2.5,1,1,3.22626e-07,0,0
0.184375,2.5,1,1,3.22626e-07,0,0
0.185625,2.5,0.999999,0.999999,7.56534e-07,0,0
0.186875,2.5,0.999999,0.999999,7.56534e-07,0,0
0.188125,2.5,0.999998,0.999998,1.7656e-06,0,0
0.189375,2.5,0.999998,0.999998,1.7656e-06,0,0
0.190625,2.5,0.999996,0.999996,4.0801e-06,0,0
0.191875,2.5,0.999996,0.999996,4.0801e-06,0,0
0.193125,2.5,0.999991,0.999991,9.19053e-06,0,0
0.194375,2.5,0.999991,0.999991,9.19053e-06,0,0
0.195625,2.49999,0.999981,0.999984,1.83338e-05,0,0
0.196875,2.49999,0.999981,0.999984,1.83338e-05,0,0
0.198125,2.49999,0.999967,0.999973,3.08084e-05,0,0
0.199375,2.49999,0.999967,0.999973,3.08084e-05,0,0
0.200625,2.49996,0.999943,0.999959,4.89634e-05,0,0
0.201875,2.49996,0.999943,0.999959,4.89634e-05,0,0
0.203125,2.49994,0.999913,0.999937,7.43575e-05,0,0
0.204375,2.49994,0.999913,0.999937,7.43575e-05,0,0
0.205625,2.49991,0.99987,0.999907,0.000109962,0,0
0.206875,2.49991,0.99987,0.999907,0.000109962,0,0
0.208125,2.49987,0.999809,0.999863,0.000161396,0,0
0.209375,2.49987,0.999809,0.999863,0.000161396,0,0
0.210625,2.49981,0.999723,0.999801,0.000235262,0,0
0.211875,2.49981,0.999723,0.999801,0.000235262,0,0
0.213125,2.49972,0.999601,0.999713,0.000338438,0,0
0.214375,2.49972,0.999601,0.999713,0.000338438,0,0
0.215625,2.4996,0.999433,0.999592,0.000481509,0,0
0.216875,2.4996,0.999433,0.999592,0.000481509,0,0
0.218125,2.49944,0.999203,0.999428,0.0006763,0,0
0.219375,2.49944,0.999203,0.999428,0.0006763,0,0
0.220625,2.49922,0.998896,0.999206,0.000937352,0,0
0.221875,2.49922,0.998896,0.999206,0.000937352,0,0
0.223125,2.49893,0.998484,0.998912,0.00128536,0,0
0.224375,2.49893,0.998484,0.998912,0.00128536,0,0
0.225625,2.49855,0.997947,0.998525,0.00174064,0,0
0.226875,2.49855,0.997947,0.998525,0.00174064,0,0
0.228125,2.49806,0.99725,0.998024,0.00233267,0,0
0.229375,2.49806,0.99725,0.998024,0.00233267,0,0
0.230625,2.49743,0.996361,0.997384,0.00308868,0,0
0.231875,2.49743,0.996361,0.997384,0.00308868,0,0
0.233125,2.49664,0.995239,0.99658,0.0040418,0,0
0.234375,2.49664,0.995239,0.99658,0.0040418,0,0
0.235625,2.49565,0.993849,0.995581,0.00522474,0,0
0.236875,2.49565,0.993849,0.995581,0.00522474,0,0
0.238125,2.49445,0.99215,0.994359,0.00667188,0,0
0.239375,2.49445,0.99215,0.994359,0.00667188,0,0
0.240625,2.49299,0.990105,0.992889,0.00841647,0,0
0.241875,2.49299,0.990105,0.992889,0.00841647,0,0
0.243125,2.49126,0.987677,0.991143,0.0104908,0,0
0.244375,2.49126,0.987677,0.991143,0.0104908,0,0
0.245625,2.48923,0.984836,0.989098,0.0129238,0,0
0.246875,2.48923,0.984836,0.989098,0.0129238,0,0
0.248125,2.48687,0.981556,0.986738,0.0157399,0,0
0.249375,2.48687,0.981556,0.986738,0.0157399,0,0
0.250625,2.48418,0.977818,0.984044,0.0189586,0,0
0.251875,2.48418,0.977818,0.984044,0.0189586,0,0
0.253125,2.48114,0.973611,0.98101,0.0225928,0,0
0.254375,2.48114,0.973611,0.98101,0.0225928,0,0
0.255625,2.47775,0.968932,0.977633,0.02665,0,0
0.256875,2.47775,0.968932,0.977633,0.02665,0,0
0.258125,2.47401,0.963786,0.973912,0.0311306,0,0
0.259375,2.47401,0.963786,0.973912,0.0311306,0,0
0.260625,2.46991,0.958186,0.969858,0.0360298,0,0
0.261875,2.46991,0.958186,0.969858,0.0360298,0,0
0.263125,2.46548,0.95215,0.965482,0.0413376,0,0
0.264375,2.46548,0.95215,0.965482,0.0413376,0,0
0.265625,2.46072,0.945701,0.960799,0.0470395,0,0
0.266875,2.46072,0.945701,0.960799,0.0470395,0,0
0.268125,2.45564,0.938867,0.955825,0.053118,0,0
0.269375,2.45564,0.938867,0.955825,0.053118,0,0
0.270625,2.45028,0.931678,0.950584,0.0595527,0,0
0.271875,2.45028,0.931678,0.950584,0.0595527,0,0
0.273125,2.44464,0.924165,0.945095,0.0663223,0,0
0.274375,2.44464,0.924165,0.945095,0.0663223,0,0
0.275625,2.43874,0.916361,0.939379,0.0734044,0,0
0.276875,2.43874,0.916361,0.939379,0.0734044,0,0
0.278125,2.4326,0.908295,0.93346,0.0807789,0,0
0.279375,2.4326,0.908295,0.93346,0.0807789,0,0
0.280625,2.42626,0.9,0.927355,0.0884187,0,0
0.281875,2.42626,0.9,0.927355,0.0884187,0,0
0.283125,2.41971,0.891506,0.921088,0.0963069,0,0
0.284375,2.41971,0.891506,0.921088,0.0963069,0,0
0.285625,2.41298,0.882839,0.914677,0.104421,0,0
0.286875,2.41298,0.882839,0.914677,0.104421,0,0
0.288125,2.40609,0.874027,0.90814,0.112742,0,0
0.289375,2.40609,0.874027,0.90814,0.112742,0,0
0.290625,2.39905,0.865091,0.901493,0.121253,0,0
0.291875,2.39905,0.865091,0.901493,0.121253,0,0
0.293125,2.39189,0.856054,0.894748,0.129939,0,0
0.294375,2.39189,0.856054,0.894748,0.129939,0,0
0.295625,2.38458,0.846926,0.887918,0.138789,0,0
0.296875,2.38458,0.846926,0.887918,0.138789,0,0
0.298125,2.37719,0.837741,0.881021,0.147782,0,0
0.299375,2.37719,0.837741,0.881021,0.147782,0,0
0.300625,2.36968,0.828508,0.87407,0.156906,0,0
0.301875,2.36968,0.828508,0.87407,0.156906,0,0
0.303125,2.3621,0.819245,0.867074,0.166147,0,0
0.304375,2.3621,0.819245,0.867074,0.166147,0,0
0.305625,2.35443,0.809964,0.860042,0.175497,0,0
0.306875,2.35443,0.809964,0.860042,0.175497,0,0
0.308125,2.3467,0.800678,0.852984,0.184942,0,0
0.309375,2.3467,0.800678,0.852984,0.184942,0,0
0.310625,2.33891,0.791401,0.845909,0.194471,0,0
0.311875,2.33891,0.791401,0.845909,0.194471,0,0
0.313125,2.33107,0.782143,0.838826,0.204075,0,0
0.314375,2.33107,0.782143,0.838826,0.204075,0,0
0.315625,2.32318,0.772913,0.83174,0.213749,0,0
0.316875,2.32318,0.772913,0.83174,0.213749,0,0
0.318125,2.31526,0.763718,0.824657,0.223485,0,0
0.319375,2.31526,0.763718,0.824657,0.223485,0,0
0.320625,2.3073,0.754563,0.817581,0.233279,0,0
0.321875,2.3073,0.754563,0.817581,0.233279,0,0
0.323125,2.29932,0.745454,0.810515,0.243127,0,0
0.324375,2.29932,0.745454,0.810515,0.243127,0,0
0.325625,2.29131,0.736393,0.803463,0.253024,0,0
0.326875,2.29131,0.736393,0.803463,0.253024,0,0
0.328125,2.28328,0.727387,0.796428,0.262967,0,0
0.329375,2.28328,0.727387,0.796428,0.262967,0,0
0.330625,2.27523,0.718438,0.789412,0.272951,0,0
0.331875,2.27523,0.718438,0.789412,0.272951,0,0
0.333125,2.26717,0.70955,0.782419,0.282974,0,0
0.334375,2.26717,0.70955,0.782419,0.282974,0,0
0.335625,2.25909,0.700726,0.775452,0.293032,0,0
0.336875,2.25909,0.700726,0.775452,0.293032,0,0
0.338125,2.251,0.691968,0.768513,0.303123,0,0
0.339375,2.251,0.691968,0.768513,0.303123,0,0
0.340625,2.2429,0.683279,0.761603,0.313244,0,0
0.341875,2.2429,0.683279,0.761603,0.313244,0,0
0.343125,2.23479,0.67466,0.754725,0.323393,0,0
0.344375,2.23479,0.67466,0.754725,0.323393,0,0
0.345625,2.22667,0.666113,0.747879,0.333567,0,0
0.346875,2.22667,0.666113,0.747879,0.333567,0,0
0.348125,2.21855,0.657639,0.741068,0.343765,0,0
0.349375,2.21855,0.657639,0.741068,0.343765,0,0
0.350625,2.21043,0.649239,0.734291,0.353986,0,0
0.351875,2.21043,0.649239,0.734291,0.353986,0,0
0.353125,2.20231,0.640915,0.72755,0.364227,0,0
0.354375,2.20231,0.640915,0.72755,0.364227,0,0
0.355625,2.19418,0.632667,0.720847,0.374488,0,0
0.356875,2.19418,0.632667,0.720847,0.374488,0,0
0.358125,2.18605,0.624496,0.714181,0.384767,0,0
0.359375,2.18605,0.624496,0.714181,0.384767,0,0
0.360625,2.17793,0.616402,0.707554,0.395063,0,0
0.361875,2.17793,0.616402,0.707554,0.395063,0,0
0.363125,2.16981,0.608386,0.700967,0.405375,0,0
0.364375,2.16981,0.608386,0.700967,0.405375,0,0
0.365625,2.16169,0.600449,0.69442,0.415701,0,0
0.366875,2.16169,0.600449,0.69442,0.415701,0,0
0.368125,2.15358,0.59259,0.687912,0.426041,0,0
0.369375,2.15358,0.59259,0.687912,0.426041,0,0
0.370625,2.14547,0.58481,0.681446,0.436395,0,0
0.371875,2.14547,0.58481,0.681446,0.436395,0,0
0.373125,2.13737,0.577108,0.675021,0.44676,0,0
0.374375,2.13737,0.577108,0.675021,0.44676,0,0
0.375625,2.12928,0.569485,0.668637,0.457138,0,0
0.376875,2.12928,0.569485,0.668637,0.457138,0,0
0.378125,2.12119,0.561941,0.662295,0.467526,0,0
0.379375,2.12119,0.561941,0.662295,0.467526,0,0
0.380625,2.11311,0.554475,0.655996,0.477924,0,0
0.381875,2.11311,0.554475,0.655996,0.477924,0,0
0.383125,2.10503,0.547088,0.649739,0.488332,0,0
0.384375,2.10503,0.547088,0.649739,0.488332,0,0
0.385625,2.09697,0.539779,0.643524,0.498749,0,0
0.386875,2.09697,0.539779,0.643524,0.498749,0,0
0.388125,2.08891,0.532548,0.637351,0.509175,0,0
0.389375,2.08891,0.532548,0.637351,0.509175,0,0
0.390625,2.08086,0.525394,0.631221,0.519611,0,0
0.391875,2.08086,0.525394,0.631221,0.519611,0,0
0.393125,2.07282,0.518315,0.625134,0.530053,0,0
0.394375,2.07282,0.518315,0.625134,0.530053,0,0
0.395625,2.0648,0.511317,0.619089,0.540503,0,0
0.396875,2.0648,0.511317,0.619089,0.540503,0,0
0.398125,2.05678,0.504396,0.613088,0.550959,0,0
0.399375,2.05678,0.504396,0.613088,0.550959,0,0
0.400625,2.04877,0.497549,0.60713,0.561423,0,0
0.401875,2.04877,0.497549,0.60713,0.561423,0,0
0.403125,2.04079,0.49078,0.601214,0.571893,0,0
0.404375,2.04079,0.49078,0.601214,0.571893,0,0
0.405625,2.0328,0.484085,0.595341,0.582368,0,0
0.406875,2.0328,0.484085,0.595341,0.582368,0,0
0.408125,2.02484,0.477465,0.589511,0.592851,0,0
0.409375,2.02484,0.477465,0.589511,0.592851,0,0
0.410625,2.01687,0.470919,0.583723,0.603338,0,0
0.411875,2.01687,0.470919,0.583723,0.603338,0,0
0.413125,2.00893,0.464447,0.577978,0.613832,0,0
0.414375,2.00893,0.464447,0.577978,0.613832,0,0
0.415625,2.00099,0.458047,0.572275,0.624332,0,0
0.416875,2.00099,0.458047,0.572275,0.624332,0,0
0.418125,1.99307,0.451721,0.566615,0.634836,0,0
0.419375,1.99307,0.451721,0.566615,0.634836,0,0
0.420625,1.98516,0.445467,0.560996,0.645345,0,0
0.421875,1.98516,0.445467,0.560996,0.645345,0,0
0.423125,1.97726,0.439283,0.555421,0.655859,0,0
0.424375,1.97726,0.439283,0.555421,0.655859,0,0
0.425625,1.96937,0.433173,0.549887,0.666376,0,0
0.426875,1.96937,0.433173,0.549887,0.666376,0,0
0.428125,1.9615,0.427133,0.544396,0.676896,0,0
0.429375,1.9615,0.427133,0.544396,0.676896,0,0
0.430625,1.95364,0.421166,0.538949,0.687417,0,0
0.431875,1.95364,0.421166,0.538949,0.687417,0,0
0.433125,1.9458,0.41527,0.533546,0.697938,0,0
0.434375,1.9458,0.41527,0.533546,0.697938,0,0
0.435625,1.93798,0.409447,0.528189,0.708455,0,0
0.436875,1.93798,0.409447,0.528189,0.708455,0,0
0.438125,1.93017,0.403697,0.522877,0.718966,0,0
0.439375,1.93017,0.403697,0.522877,0.718966,0,0
0.440625,1.92239,0.39802,0.517612,0.729472,0,0
0.441875,1.92239,0.39802,0.517612,0.729472,0,0
0.443125,1.91463,0.392417,0.512393,0.739967,0,0
0.444375,1.91463,0.392417,0.512393,0.739967,0,0
0.445625,1.90689,0.386888,0.507223,0.750452,0,0
0.446875,1.90689,0.386888,0.507223,0.750452,0,0
0.448125,1.89918,0.381434,0.502102,0.760917,0,0
0.449375,1.89918,0.381434,0.502102,0.760917,0,0
0.450625,1.89151,0.376055,0.497031,0.77137,0,0
0.451875,1.89151,0.376055,0.497031,0.77137,0,0
0.453125,1.88385,0.370752,0.492014,0.781796,0,0
0.454375,1.88385,0.370752,0.492014,0.781796,0,0
0.455625,1.87625,0.365528,0.487045,0.792198,0,0
0.456875,1.87625,0.365528,0.487045,0.792198,0,0
0.458125,1.86866,0.360378,0.482136,0.802574,0,0
0.459375,1.86866,0.360378,0.482136,0.802574,0,0
0.460625,1.86113,0.355316,0.477285,0.812894,0,0
0.461875,1.86113,0.355316,0.477285,0.812894,0,0
0.463125,1.85366,0.350334,0.472489,0.823185,0,0
0.464375,1.85366,0.350334,0.472489,0.823185,0,0
0.465625,1.8462,0.345441,0.467774,0.833404,0,0
0.466875,1.8462,0.345441,0.467774,0.833404,0,0
0.468125,1.8389,0.340651,0.463119,0.843535,0,0
0.469375,1.8389,0.340651,0.463119,0.843535,0,0
0.470625,1.83158,0.335959,0.458566,0.853577,0,0
0.471875,1.83158,0.335959,0.458566,0.853577,0,0
0.473125,1.82449,0.331384,0.454079,0.863477,0,0
0.474375,1.82449,0.331384,0.454079,0.863477,0,0
0.475625,1.81739,0.326932,0.449727,0.873241,0,0
0.476875,1.81739,0.326932,0.449727,0.873241,0,0
0.478125,1.81062,0.322636,0.445477,0.882746,0,0
0.479375,1.81062,0.322636,0.445477,0.882746,0,0
0.480625,1.80396,0.318532,0.441435,0.891956,0,0
0.481875,1.80396,0.318532,0.441435,0.891956,0,0
0.483125,1.79775,0.314671,0.437591,0.900683,0,0
0.484375,1.79775,0.314671,0.437591,0.900683,0,0
0.485625,1.79192,0.311134,0.434077,0.908796,0,0
0.486875,1.79192,0.311134,0.434077,0.908796,0,0
0.488125,1.7868,0.308008,0.43095,0.915992,0,0
0.489375,1.7868,0.308008,0.43095,0.915992,0,0
0.490625,1.78249,0.305409,0.428347,0.922068,0,0
0.491875,1.78249,0.305409,0.428347,0.922068,0,0
0.493125,1.7792,0.303443,0.426376,0.926678,0,0
0.494375,1.7792,0.303443,0.426376,0.926678,0,0
0.495625,1.77706,0.302147,0.425066,0.92975,0,0
0.496875,1.77706,0.302147,0.425066,0.92975,0,0
0.498125,1.77592,0.301477,0.424396,0.931355,0,0
0.499375,1.77592,0.301477,0.424396,0.931355,0,0
0.500625,1.77561,0.30127,0.424178,0.931848,0,0
0.501875,1.77561,0.30127,0.424178,0.931848,0,0
0.503125,1.77568,0.301294,0.424194,0.931767,0,0
0.504375,1.77568,0.301294,0.424194,0.931767,0,0
0.505625,1.77595,0.301441,0.424337,0.931409,0,0
0.506875,1.77595,0.301441,0.424337,0.931409,0,0
0.508125,1.77643,0.301718,0.424614,0.930751,0,0
0.509375,1.77643,0.301718,0.424614,0.930751,0,0
0.510625,1.77706,0.302097,0.424995,0.929853,0,0
0.511875,1.77706,0.302097,0.424995,0.929853,0,0
0.513125,1.77777,0.302517,0.425416,0.928863,0,0
0.514375,1.77777,0.302517,0.425416,0.928863,0,0
0.515625,1.77826,0.302793,0.425689,0.928187,0,0
0.516875,1.77826,0.302793,0.425689,0.928187,0,0
0.518125,1.77838,0.302858,0.42575,0.928058,0,0
0.519375,1.77838,0.302858,0.42575,0.928058,0,0
0.520625,1.77839,0.302854,0.425742,0.928074,0,0
0.521875,1.77839,0.302854,0.425742,0.928074,0,0
0.523125,1.77841,0.302855,0.425739,0.928074,0,0
0.524375,1.77841,0.302855,0.425739,0.928074,0,0
0.525625,1.77846,0.302869,0.425746,0.928041,0,0
0.526875,1.77846,0.302869,0.425746,0.928041,0,0
0.528125,1.77854,0.302907,0.42578,0.927949,0,0
0.529375,1.77854,0.302907,0.42578,0.927949,0,0
0.530625,1.77867,0.302968,0.425836,0.927804,0,0
0.531875,1.77867,0.302968,0.425836,0.927804,0,0
0.533125,1.77878,0.303032,0.425898,0.92765,0,0
0.534375,1.77878,0.303032,0.425898,0.92765,0,0
0.535625,1.77886,0.303065,0.425926,0.927572,0,0
0.536875,1.77886,0.303065,0.425926,0.927572,0,0
0.538125,1.77893,0.303089,0.425943,0.92752,0,0
0.539375,1.77893,0.303089,0.425943,0.92752,0,0
0.540625,1.77899,0.30311,0.425959,0.927467,0,0
0.541875,1.77899,0.30311,0.425959,0.927467,0,0
0.543125,1.77906,0.303134,0.425976,0.927411,0,0
0.544375,1.77906,0.303134,0.425976,0.927411,0,0
0.545625,1.77912,0.303157,0.425993,0.927355,0,0
0.546875,1.77912,0.303157,0.425993,0.927355,0,0
0.548125,1.77918,0.303175,0.426004,0.927313,0,0
0.549375,1.77918,0.303175,0.426004,0.927313,0,0
0.550625,1.77923,0.30319,0.426012,0.927277,0,0
0.551875,1.77923,0.30319,0.426012,0.927277,0,0
0.553125,1.77929,0.303204,0.426019,0.927244,0,0
0.554375,1.77929,0.303204,0.426019,0.927244,0,0
0.555625,1.77934,0.303217,0.426024,0.927212,0,0
0.556875,1.77934,0.303217,0.426024,0.927212,0,0
0.558125,1.7794,0.303229,0.426028,0.927185,0,0
0.559375,1.7794,0.303229,0.426028,0.927185,0,0
0.560625,1.77945,0.30324,0.426031,0.927159,0,0
0.561875,1.77945,0.30324,0.426031,0.927159,0,0
0.563125,1.7795,0.303252,0.426034,0.927131,0,0
0.564375,1.7795,0.303252,0.426034,0.927131,0,0
0.565625,1.77955,0.303262,0.426036,0.92711,0,0
0.566875,1.77955,0.303262,0.426036,0.92711,0,0
0.568125,1.77959,0.303261,0.426026,0.927111,0,0
0.569375,1.77959,0.303261,0.426026,0.927111,0,0
0.570625,1.77963,0.303264,0.42602,0.927103,0,0
0.571875,1.77963,0.303264,0.42602,0.927103,0,0
0.573125,1.77969,0.303272,0.426018,0.927084,0,0
0.574375,1.77969,0.303272,0.426018,0.927084,0,0
0.575625,1.77975,0.303283,0.42602,0.927059,0,0
0.576875,1.77975,0.303283,0.42602,0.927059,0,0
0.578125,1.77979,0.303283,0.426009,0.927058,0,0
0.579375,1.77979,0.303283,0.426009,0.927058,0,0
0.580625,1.77985,0.303286,0.426,0.92705,0,0
0.581875,1.77985,0.303286,0.426,0.92705,0,0
0.583125,1.77991,0.303293,0.425995,0.927034,0,0
0.584375,1.77991,0.303293,0.425995,0.927034,0,0
0.585625,1.77997,0.303302,0.425992,0.927014,0,0
0.586875,1.77997,0.303302,0.425992,0.927014,0,0
0.588125,1.78003,0.303301,0.425977,0.927016,0,0
0.589375,1.78003,0.303301,0.425977,0.927016,0,0
0.590625,1.78009,0.303303,0.425966,0.92701,0,0
0.591875,1.78009,0.303303,0.425966,0.92701,0,0
0.593125,1.78016,0.303308,0.425956,0.926997,0,0
0.594375,1.78016,0.303308,0.425956,0.926997,0,0
0.595625,1.78023,0.303315,0.425949,0.926982,0,0
0.596875,1.78023,0.303315,0.425949,0.926982,0,0
0.598125,1.7803,0.303315,0.425932,0.926982,0,0
0.599375,1.7803,0.303315,0.425932,0.926982,0,0
0.600625,1.78037,0.303315,0.425915,0.926979,0,0
0.601875,1.78037,0.303315,0.425915,0.926979,0,0
0.603125,1.78046,0.303317,0.425899,0.926974,0,0
0.604375,1.78046,0.303317,0.425899,0.926974,0,0
0.605625,1.78054,0.303321,0.425882,0.926966,0,0
0.606875,1.78054,0.303321,0.425882,0.926966,0,0
0.608125,1.78064,0.303325,0.425865,0.926957,0,0
0.609375,1.78064,0.303325,0.425865,0.926957,0,0
0.610625,1.78074,0.303324,0.42584,0.926959,0,0
0.611875,1.78074,0.303324,0.42584,0.926959,0,0
0.613125,1.78085,0.303325,0.425815,0.926956,0,0
0.614375,1.78085,0.303325,0.425815,0.926956,0,0
0.615625,1.78097,0.303327,0.425789,0.92695,0,0
0.616875,1.78097,0.303327,0.425789,0.92695,0,0
0.618125,1.78111,0.303331,0.425761,0.926942,0,0
0.619375,1.78111,0.303331,0.425761,0.926942,0,0
0.620625,1.78126,0.30333,0.425725,0.926944,0,0
0.621875,1.78126,0.30333,0.425725,0.926944,0,0
0.623125,1.78142,0.30333,0.425686,0.926944,0,0
0.624375,1.78142,0.30333,0.425686,0.926944,0,0
0.625625,1.78161,0.303332,0.425642,0.926941,0,0
0.626875,1.78161,0.303332,0.425642,0.926941,0,0
0.628125,1.78184,0.303335,0.425592,0.926936,0,0
0.629375,1.78184,0.303335,0.425592,0.926936,0,0
0.630625,1.78212,0.303335,0.425527,0.926937,0,0
0.631875,1.78212,0.303335,0.425527,0.926937,0,0
0.633125,1.78246,0.303335,0.425444,0.92694,0,0
0.634375,1.78246,0.303335,0.425444,0.92694,0,0
0.635625,1.78292,0.303335,0.425335,0.926947,0,0
0.636875,1.78292,0.303335,0.425335,0.926947,0,0
0.638125,1.78354,0.303339,0.425192,0.926944,0,0
0.639375,1.78354,0.303339,0.425192,0.926944,0,0
0.640625,1.78441,0.303341,0.424988,0.92695,0,0
0.641875,1.78441,0.303341,0.424988,0.92695,0,0
0.643125,1.78563,0.303338,0.424693,0.92697,0,0
0.644375,1.78563,0.303338,0.424693,0.92697,0,0
0.645625,1.78738,0.303334,0.424273,0.927001,0,0
0.646875,1.78738,0.303334,0.424273,0.927001,0,0
0.648125,1.78987,0.303344,0.423695,0.927002,0,0
0.649375,1.78987,0.303344,0.423695,0.927002,0,0
0.650625,1.79338,0.303349,0.422873,0.927025,0,0
0.651875,1.79338,0.303349,0.422873,0.927025,0,0
0.653125,1.79826,0.303341,0.421714,0.927079,0,0
0.654375,1.79826,0.303341,0.421714,0.927079,0,0
0.655625,1.80498,0.303333,0.420133,0.927144,0,0
0.656875,1.80498,0.303333,0.420133,0.927144,0,0
0.658125,1.81411,0.303345,0.418036,0.927182,0,0
0.659375,1.81411,0.303345,0.418036,0.927182,0,0
0.660625,1.82624,0.303347,0.415261,0.927247,0,0
0.661875,1.82624,0.303347,0.415261,0.927247,0,0
0.663125,1.84211,0.303337,0.41167,0.927343,0,0
0.664375,1.84211,0.303337,0.41167,0.927343,0,0
0.665625,1.86253,0.303339,0.40716,0.927427,0,0
0.666875,1.86253,0.303339,0.40716,0.927427,0,0
0.668125,1.8883,0.303348,0.401614,0.927512,0,0
0.669375,1.8883,0.303348,0.401614,0.927512,0,0
0.670625,1.92022,0.303347,0.394939,0.927613,0,0
0.671875,1.92022,0.303347,0.394939,0.927613,0,0
0.673125,1.95901,0.303345,0.387115,0.92772,0,0
0.674375,1.95901,0.303345,0.387115,0.92772,0,0
0.675625,2.00528,0.303348,0.378187,0.927806,0,0
0.676875,2.00528,0.303348,0.378187,0.927806,0,0
0.678125,2.05939,0.303352,0.368255,0.927891,0,0
0.679375,2.05939,0.303352,0.368255,0.927891,0,0
0.680625,2.12139,0.303355,0.357495,0.927941,0,0
0.681875,2.12139,0.303355,0.357495,0.927941,0,0
0.683125,2.19092,0.303345,0.346139,0.927936,0,0
0.684375,2.19092,0.303345,0.346139,0.927936,0,0
0.685625,2.26721,0.303341,0.334487,0.927845,0,0
0.686875,2.26721,0.303341,0.334487,0.927845,0,0
0.688125,2.34872,0.303313,0.32285,0.927574,0,0
0.689375,2.34872,0.303313,0.32285,0.927574,0,0
0.690625,2.43354,0.303299,0.311583,0.927037,0,0
0.691875,2.43354,0.303299,0.311583,0.927037,0,0
0.693125,2.51494,0.303366,0.301564,0.92684,0,0
0.694375,2.51494,0.303366,0.301564,0.92684,0,0
0.695625,2.58714,0.303369,0.29315,0.9269,0,0
0.696875,2.58714,0.303369,0.29315,0.9269,0,0
0.698125,2.64926,0.303361,0.286269,0.926986,0,0
0.699375,2.64926,0.303361,0.286269,0.926986,0,0
0.700625,2.70103,0.30336,0.280782,0.927032,0,0
0.701875,2.70103,0.30336,0.280782,0.927032,0,0
0.703125,2.74282,0.303359,0.276503,0.927061,0,0
0.704375,2.74282,0.303359,0.276503,0.927061,0,0
0.705625,2.77561,0.30336,0.273237,0.92708,0,0
0.706875,2.77561,0.30336,0.273237,0.92708,0,0
0.708125,2.80061,0.30336,0.270798,0.927092,0,0
0.709375,2.80061,0.30336,0.270798,0.927092,0,0
0.710625,2.81916,0.303361,0.269017,0.927097,0,0
0.711875,2.81916,0.303361,0.269017,0.927097,0,0
0.713125,2.83256,0.303362,0.267745,0.927099,0,0
0.714375,2.83256,0.303362,0.267745,0.927099,0,0
0.715625,2.84198,0.303363,0.266858,0.9271,0,0
0.716875,2.84198,0.303363,0.266858,0.9271,0,0
0.718125,2.84841,0.303363,0.266256,0.927102,0,0
0.719375,2.84841,0.303363,0.266256,0.927102,0,0
0.720625,2.85267,0.303363,0.265859,0.927104,0,0
0.721875,2.85267,0.303363,0.265859,0.927104,0,0
0.723125,2.85538,0.303363,0.265607,0.927106,0,0
0.724375,2.85538,0.303363,0.265607,0.927106,0,0
0.725625,2.85702,0.303362,0.265453,0.927108,0,0
0.726875,2.85702,0.303362,0.265453,0.927108,0,0
0.728125,2.85795,0.303362,0.265367,0.92711,0,0
0.729375,2.85795,0.303362,0.265367,0.92711,0,0
0.730625,2.85842,0.303362,0.265323,0.927111,0,0
0.731875,2.85842,0.303362,0.265323,0.927111,0,0
0.733125,2.85861,0.303363,0.265306,0.927111,0,0
0.734375,2.85861,0.303363,0.265306,0.927111,0,0
0.735625,2.85864,0.303364,0.265304,0.927108,0,0
0.736875,2.85864,0.303364,0.265304,0.927108,0,0
0.738125,2.85861,0.303365,0.265308,0.927102,0,0
0.739375,2.85861,0.303365,0.265308,0.927102,0,0
0.740625,2.85852,0.303365,0.265317,0.927101,0,0
0.741875,2.85852,0.303365,0.265317,0.927101,0,0
0.743125,2.85837,0.303366,0.265331,0.927102,0,0
0.744375,2.85837,0.303366,0.265331,0.927102,0,0
0.745625,2.85819,0.303366,0.265348,0.927106,0,0
0.746875,2.85819,0.303366,0.265348,0.927106,0,0
0.748125,2.858,0.303365,0.265365,0.92711,0,0
0.749375,2.858,0.303365,0.265365,0.92711,0,0
0.750625,2.85784,0.303364,0.265379,0.927114,0,0
0.751875,2.85784,0.303364,0.265379,0.927114,0,0
0.753125,2.85772,0.303364,0.26539,0.927116,0,0
0.754375,2.85772,0.303364,0.26539,0.927116,0,0
0.755625,2.85761,0.303364,0.265399,0.927118,0,0
0.756875,2.85761,0.303364,0.265399,0.927118,0,0
0.758125,2.85753,0.303364,0.265408,0.927118,0,0
0.759375,2.85753,0.303364,0.265408,0.927118,0,0
0.760625,2.85746,0.303365,0.265415,0.927116,0,0
0.761875,2.85746,0.303365,0.265415,0.927116,0,0
0.763125,2.8574,0.303366,0.265422,0.927114,0,0
0.764375,2.8574,0.303366,0.265422,0.927114,0,0
0.765625,2.85735,0.303368,0.265427,0.927112,0,0
0.766875,2.85735,0.303368,0.265427,0.927112,0,0
0.768125,2.85731,0.303368,0.265432,0.927112,0,0
0.769375,2.85731,0.303368,0.265432,0.927112,0,0
0.770625,2.85727,0.303368,0.265436,0.927113,0,0
0.771875,2.85727,0.303368,0.265436,0.927113,0,0
0.773125,2.85723,0.303368,0.265439,0.927116,0,0
0.774375,2.85723,0.303368,0.265439,0.927116,0,0
0.775625,2.8572,0.303368,0.265442,0.927119,0,0
0.776875,2.8572,0.303368,0.265442,0.927119,0,0
0.778125,2.85717,0.303367,0.265444,0.927122,0,0
0.779375,2.85717,0.303367,0.265444,0.927122,0,0
0.780625,2.85715,0.303367,0.265446,0.927125,0,0
0.781875,2.85715,0.303367,0.265446,0.927125,0,0
0.783125,2.85714,0.303368,0.265448,0.927125,0,0
0.784375,2.85714,0.303368,0.265448,0.927125,0,0
0.785625,2.85712,0.303369,0.26545,0.927126,0,0
0.786875,2.85712,0.303369,0.26545,0.927126,0,0
0.788125,2.8571,0.303369,0.265452,0.927124,0,0
0.789375,2.8571,0.303369,0.265452,0.927124,0,0
0.790625,2.8571,0.303371,0.265453,0.927123,0,0
0.791875,2.8571,0.303371,0.265453,0.927123,0,0
0.793125,2.85709,0.303371,0.265455,0.927121,0,0
0.794375,2.85709,0.303371,0.265455,0.927121,0,0
0.795625,2.85708,0.303371,0.265456,0.927119,0,0
0.796875,2.85708,0.303371,0.265456,0.927119,0,0
0.798125,2.85707,0.30337,0.265456,0.927121,0,0
0.799375,2.85707,0.30337,0.265456,0.927121,0,0
0.800625,2.85705,0.303368,0.265455,0.927121,0,0
0.801875,2.85705,0.303368,0.265455,0.927121,0,0
0.803125,2.85705,0.303366,0.265454,0.927116,0,0
0.804375,2.85705,0.303366,0.265454,0.927116,0,0
0.805625,2.85703,0.303363,0.265453,0.927107,0,0
0.806875,2.85703,0.303363,0.265453,0.927107,0,0
0.808125,2.85702,0.303358,0.26545,0.927091,0,0
0.809375,2.85702,0.303358,0.26545,0.927091,0,0
0.810625,2.857,0.303351,0.265446,0.927066,0,0
0.811875,2.857,0.303351,0.265446,0.927066,0,0
0.813125,2.85696,0.303339,0.265438,0.927017,0,0
0.814375,2.85696,0.303339,0.265438,0.927017,0,0
0.815625,2.8569,0.303317,0.265425,0.926938,0,0
0.816875,2.8569,0.303317,0.265425,0.926938,0,0
0.818125,2.85679,0.303277,0.2654,0.926817,0,0
0.819375,2.85679,0.303277,0.2654,0.926817,0,0
0.820625,2.85662,0.303209,0.265357,0.926621,0,0
0.821875,2.85662,0.303209,0.265357,0.926621,0,0
0.823125,2.85634,0.3031,0.265287,0.926276,0,0
0.824375,2.85634,0.3031,0.265287,0.926276,0,0
0.825625,2.85587,0.302923,0.265176,0.925671,0,0
0.826875,2.85587,0.302923,0.265176,0.925671,0,0
0.828125,2.85507,0.30262,0.264985,0.924679,0,0
0.829375,2.85507,0.30262,0.264985,0.924679,0,0
0.830625,2.85369,0.302096,0.264654,0.923063,0,0
0.831875,2.85369,0.302096,0.264654,0.923063,0,0
0.833125,2.85143,0.301227,0.264102,0.920315,0,0
0.834375,2.85143,0.301227,0.264102,0.920315,0,0
0.835625,2.84765,0.299794,0.263195,0.915588,0,0
0.836875,2.84765,0.299794,0.263195,0.915588,0,0
0.838125,2.84116,0.297375,0.261666,0.907651,0,0