x,T,p,rho,U_0,U_1,U_2
0.000625,2.5,1,1,-2.84088e-16,0,0
0.001875,2.5,1,1,-2.84088e-16,0,0
0.003125,2.5,1,1,6.36768e-16,0,0
0.004375,2.5,1,1,6.36768e-16,0,0
0.005625,2.5,1,1,8.03951e-16,0,0
0.006875,2.5,1,1,8.03951e-16,0,0
0.008125,2.5,1,1,-8.78966e-16,0,0
0.009375,2.5,1,1,-8.78966e-16,0,0
0.010625,2.5,1,1,5.40921e-16,0,0
0.011875,2.5,1,1,5.40921e-16,0,0
0.013125,2.5,1,1,6.34982e-16,0,0
0.014375,2.5,1,1,6.34982e-16,0,0
0.015625,2.5,1,1,5.68894e-17,0,0
0.016875,2.5,1,1,5.68894e-17,0,0
0.018125,2.5,1,1,-2.8277e-16,0,0
0.019375,2.5,1,1,-2.8277e-16,0,0
0.020625,2.5,1,1,6.21311e-16,0,0
0.021875,2.5,1,1,6.21311e-16,0,0
0.023125,2.5,1,1,5.80009e-16,0,0
0.024375,2.5,1,1,5.80009e-16,0,0
0.025625,2.5,1,1,-4.5145e-16,0,0
0.026875,2.5,1,1,-4.5145e-16,0,0
0.028125,2.5,1,1,7.80408e-16,0,0
0.029375,2.5,1,1,7.80408e-16,0,0
0.030625,2.5,1,1,-6.30661e-16,0,0
0.031875,2.5,1,1,-6.30661e-16,0,0
0.033125,2.5,1,1,-2.10287e-16,0,0
0.034375,2.5,1,1,-2.10287e-16,0,0
0.035625,2.5,1,1,9.95903e-17,0,0
0.036875,2.5,1,1,9.95903e-17,0,0
0.038125,2.5,1,1,2.19842e-16,0,0
0.039375,2.5,1,1,2.19842e-16,0,0
0.040625,2.5,1,1,-3.3634e-16,0,0
0.041875,2.5,1,1,-3.3634e-16,0,0
0.043125,2.5,1,1,-4.12886e-16,0,0
0.044375,2.5,1,1,-4.12886e-16,0,0
0.045625,2.5,1,1,-1.9199e-15,0,0
0.046875,2.5,1,1,-1.9199e-15,0,0
0.048125,2.5,1,1,-8.4867e-16,0,0
0.049375,2.5,1,1,-8.4867e-16,0,0
0.050625,2.5,1,1,-2.30188e-15,0,0
0.051875,2.5,1,1,-2.30188e-15,0,0
0.053125,2.5,1,1,-2.69306e-15,0,0
0.054375,2.5,1,1,-2.69306e-15,0,0
0.055625,2.5,1,1,-2.57006e-15,0,0
0.056875,2.5,1,1,-2.57006e-15,0,0
0.058125,2.5,1,1,-1.13796e-15,0,0
0.059375,2.5,1,1,-1.13796e-15,0,0
0.060625,2.5,1,1,-1.24915e-15,0,0
0.061875,2.5,1,1,-1.24915e-15,0,0
0.063125,2.5,1,1,-9.71155e-16,0,0
0.064375,2.5,1,1,-9.71155e-16,0,0
0.065625,2.5,1,1,-1.86293e-15,0,0
0.066875,2.5,1,1,-1.86293e-15,0,0
0.068125,2.5,1,1,-2.48818e-15,0,0
0.069375,2.5,1,1,-2.48818e-15,0,0
0.070625,2.5,1,1,-9.78405e-16,0,0
0.071875,2.5,1,1,-9.78405e-16,0,0
0.073125,2.5,1,1,-1.14196e-15,0,0
0.074375,2.5,1,1,-1.14196e-15,0,0
0.075625,2.5,1,1,8.82342e-17,0,0
0.076875,2.5,1,1,8.82342e-17,0,0
0.078125,2.5,1,1,-3.88255e-16,0,0
0.079375,2.5,1,1,-3.88255e-16,0,0
0.080625,2.5,1,1,-2.89538e-16,0,0
0.081875,2.5,1,1,-2.89538e-16,0,0
0.083125,2.5,1,1,6.83979e-16,0,0
0.084375,2.5,1,1,6.83979e-16,0,0
0.085625,2.5,1,1,9.68552e-18,0,0
0.086875,2.5,1,1,9.68552e-18,0,0
0.088125,2.5,1,1,-9.89844e-17,0,0
0.089375,2.5,1,1,-9.89844e-17,0,0
0.090625,2.5,1,1,-5.46822e-16,0,0
0.091875,2.5,1,1,-5.46822e-16,0,0
0.093125,2.5,1,1,8.53501e-18,0,0
0.094375,2.5,1,1,8.53501e-18,0,0
0.095625,2.5,1,1,-8.24786e-16,0,0
0.096875,2.5,1,1,-8.24786e-16,0,0
0.098125,2.5,1,1,8.8257e-16,0,0
0.099375,2.5,1,1,8.8257e-16,0,0
0.100625,2.5,1,1,-3.55903e-16,0,0
0.101875,2.5,1,1,-3.55903e-16,0,0
0.103125,2.5,1,1,-2.79129e-16,0,0
0.104375,2.5,1,1,-2.79129e-16,0,0
0.105625,2.5,1,1,-5.65693e-17,0,0
0.106875,2.5,1,1,-5.65693e-17,0,0
0.108125,2.5,1,1,3.11504e-16,0,0
0.109375,2.5,1,1,3.11504e-16,0,0
0.110625,2.5,1,1,-3.90371e-16,0,0
0.111875,2.5,1,1,-3.90371e-16,0,0
0.113125,2.5,1,1,6.86739e-16,0,0
0.114375,2.5,1,1,6.86739e-16,0,0
0.115625,2.5,1,1,-1.27041e-16,0,0
0.116875,2.5,1,1,-1.27041e-16,0,0
0.118125,2.5,1,1,3.39574e-17,0,0
0.119375,2.5,1,1,3.39574e-17,0,0
0.120625,2.5,1,1,-3.83395e-16,0,0
0.121875,2.5,1,1,-3.83395e-16,0,0
0.123125,2.5,1,1,5.35037e-17,0,0
0.124375,2.5,1,1,5.35037e-17,0,0
0.125625,2.5,1,1,2.59861e-16,0,0
0.126875,2.5,1,1,2.59861e-16,0,0
0.128125,2.5,1,1,2.37112e-16,0,0
0.129375,2.5,1,1,2.37112e-16,0,0
0.130625,2.5,1,1,-5.31935e-16,0,0
0.131875,2.5,1,1,-5.31935e-16,0,0
0.133125,2.5,1,1,-2.20713e-16,0,0
0.134375,2.5,1,1,-2.20713e-16,0,0
0.135625,2.5,1,1,6.32119e-18,0,0
0.136875,2.5,1,1,6.32119e-18,0,0
0.138125,2.5,1,1,6.33565e-16,0,0
0.139375,2.5,1,1,6.33565e-16,0,0
0.140625,2.5,1,1,-2.62208e-16,0,0
0.141875,2.5,1,1,-2.62208e-16,0,0
0.143125,2.5,1,1,-6.49904e-16,0,0
0.144375,2.5,1,1,-6.49904e-16,0,0
0.145625,2.5,1,1,-8.3893e-17,0,0
0.146875,2.5,1,1,-8.3893e-17,0,0
0.148125,2.5,1,1,5.42295e-16,0,0
0.149375,2.5,1,1,5.42295e-16,0,0
0.150625,2.5,1,1,-1.95128e-16,0,0
0.151875,2.5,1,1,-1.95128e-16,0,0
0.153125,2.5,1,1,-2.85697e-16,0,0
0.154375,2.5,1,1,-2.85697e-16,0,0
0.155625,2.5,1,1,-1.275e-16,0,0
0.156875,2.5,1,1,-1.275e-16,0,0
0.158125,2.5,1,1,6.48005e-16,0,0
0.159375,2.5,1,1,6.48005e-16,0,0
0.160625,2.5,1,1,-1.24534e-15,0,0
0.161875,2.5,1,1,-1.24534e-15,0,0
0.163125,2.5,1,1,8.39811e-16,0,0
0.164375,2.5,1,1,8.39811e-16,0,0
0.165625,2.5,1,1,-3.15713e-16,0,0
0.166875,2.5,1,1,-3.15713e-16,0,0
0.168125,2.5,1,1,7.07716e-16,0,0
0.169375,2.5,1,1,7.07716e-16,0,0
0.170625,2.5,1,1,-6.67982e-16,0,0
0.171875,2.5,1,1,-6.67982e-16,0,0
0.173125,2.5,1,1,3.41677e-16,0,0
0.174375,2.5,1,1,3.41677e-16,0,0
0.175625,2.5,1,1,-8.76315e-16,0,0
0.176875,2.5,1,1,-8.76315e-16,0,0
0.178125,2.5,1,1,3.99932e-16,0,0
0.179375,2.5,1,1,3.99932e-16,0,0
0.180625,2.5,1,1,-3.92126e-17,0,0
0.181875,2.5,1,1,-3.92126e-17,0,0
0.183125,2.5,1,1,-7.31782e-16,0,0
0.184375,2.5,1,1,-7.31782e-16,0,0
0.185625,2.5,1,1,1.10204e-15,0,0
0.186875,2.5,1,1,1.10204e-15,0,0
0.188125,2.5,1,1,2.63089e-16,0,0
0.189375,2.5,1,1,2.63089e-16,0,0
0.190625,2.5,1,1,-4.0411e-16,0,0
0.191875,2.5,1,1,-4.0411e-16,0,0
0.193125,2.5,1,1,3.70837e-16,0,0
0.194375,2.5,1,1,3.70837e-16,0,0
0.195625,2.5,1,1,-2.07269e-16,0,0
0.196875,2.5,1,1,-2.07269e-16,0,0
0.198125,2.5,1,1,1.56673e-16,0,0
0.199375,2.5,1,1,1.56673e-16,0,0
0.200625,2.5,1,1,-4.83637e-16,0,0
0.201875,2.5,1,1,-4.83637e-16,0,0
0.203125,2.5,1,1,-5.00134e-16,0,0
0.204375,2.5,1,1,-5.00134e-16,0,0
0.205625,2.5,1,1,-3.08216e-16,0,0
0.206875,2.5,1,1,-3.08216e-16,0,0
0.208125,2.5,1,1,-7.47008e-16,0,0
0.209375,2.5,1,1,-7.47008e-16,0,0
0.210625,2.5,1,1,7.28482e-16,0,0
0.211875,2.5,1,1,7.28482e-16,0,0
0.213125,2.5,1,1,-7.47236e-17,0,0
0.214375,2.5,1,1,-7.47236e-17,0,0
0.215625,2.5,1,1,7.33316e-17,0,0
0.216875,2.5,1,1,7.33316e-17,0,0
0.218125,2.5,1,1,-1.73798e-16,0,0
0.219375,2.5,1,1,-1.73798e-16,0,0
0.220625,2.5,1,1,3.92175e-15,0,0
0.221875,2.5,1,1,3.92175e-15,0,0
0.223125,2.5,1,1,1.40509e-14,0,0
0.224375,2.5,1,1,1.40509e-14,0,0
0.225625,2.5,1,1,5.38904e-14,0,0
0.226875,2.5,1,1,5.38904e-14,0,0
0.228125,2.5,1,1,2.04478e-13,0,0
0.229375,2.5,1,1,2.04478e-13,0,0
0.230625,2.5,1,1,7.51968e-13,0,0
0.231875,2.5,1,1,7.51968e-13,0,0
0.233125,2.5,1,1,2.59985e-12,0,0
0.234375,2.5,1,1,2.59985e-12,0,0
0.235625,2.5,1,1,8.52914e-12,0,0
0.236875,2.5,1,1,8.52914e-12,0,0
0.238125,2.5,1,1,2.70917e-11,0,0
0.239375,2.5,1,1,2.70917e-11,0,0
0.240625,2.5,1,1,8.46205e-11,0,0
0.241875,2.5,1,1,8.46205e-11,0,0
0.243125,2.5,1,1,2.61888e-10,0,0
0.244375,2.5,1,1,2.61888e-10,0,0
0.245625,2.5,1,1,8.05369e-10,0,0
0.246875,2.5,1,1,8.05369e-10,0,0
0.248125,2.5,1,1,2.46366e-09,0,0
0.249375,2.5,1,1,2.46366e-09,0,0
0.250625,2.5,1,1,7.49974e-09,0,0
0.251875,2.5,1,1,7.49974e-09,0,0
0.253125,2.5,1,1,2.27214e-08,0,0
0.254375,2.5,1,1,2.27214e-08,0,0
0.255625,2.5,1,1,6.84938e-08,0,0
0.256875,2.5,1,1,6.84938e-08,0,0
0.258125,2.5,1,1,2.05324e-07,0,0
0.259375,2.5,1,1,2.05324e-07,0,0
0.260625,2.5,0.999999,0.999999,6.11558e-07,0,0
0.261875,2.5,0.999999,0.999999,6.11558e-07,0,0
0.263125,2.5,0.999998,0.999998,1.81373e-06,0,0
0.264375,2.5,0.999998,0.999998,1.81373e-06,0,0
0.265625,2.5,0.999995,0.999995,5.4688e-06,0,0
0.266875,2.5,0.999995,0.999995,5.4688e-06,0,0
0.268125,2.49999,0.999984,0.999988,1.38846e-05,0,0
0.269375,2.49999,0.999984,0.999988,1.38846e-05,0,0
0.270625,2.49998,0.999968,0.999977,2.79147e-05,0,0
0.271875,2.49998,0.999968,0.999977,2.79147e-05,0,0
0.273125,2.49996,0.999942,0.999958,4.9719e-05,0,0
0.274375,2.49996,0.999942,0.999958,4.9719e-05,0,0
0.275625,2.49993,0.999902,0.999929,8.52479e-05,0,0
0.276875,2.49993,0.999902,0.999929,8.52479e-05,0,0
0.278125,2.49989,0.999835,0.999881,0.000143053,0,0
0.279375,2.49989,0.999835,0.999881,0.000143053,0,0
0.280625,2.49981,0.999728,0.999804,0.000235895,0,0
0.281875,2.49981,0.999728,0.999804,0.000235895,0,0
0.283125,2.49969,0.999558,0.999682,0.000381866,0,0
0.284375,2.49969,0.999558,0.999682,0.000381866,0,0
0.285625,2.49951,0.9993,0.999498,0.000603081,0,0
0.286875,2.49951,0.9993,0.999498,0.000603081,0,0
0.288125,2.49923,0.998919,0.999227,0.000928904,0,0
0.289375,2.49923,0.998919,0.999227,0.000928904,0,0
0.290625,2.49884,0.998367,0.998832,0.00140127,0,0
0.291875,2.49884,0.998367,0.998832,0.00140127,0,0
0.293125,2.49828,0.997581,0.99827,0.00207202,0,0
0.294375,2.49828,0.997581,0.99827,0.00207202,0,0
0.295625,2.4975,0.996494,0.997491,0.00300067,0,0
0.296875,2.4975,0.996494,0.997491,0.00300067,0,0
0.298125,2.49645,0.995026,0.996441,0.00425351,0,0
0.299375,2.49645,0.995026,0.996441,0.00425351,0,0
0.300625,2.49506,0.993094,0.995061,0.00590024,0,0
0.301875,2.49506,0.993094,0.995061,0.00590024,0,0
0.303125,2.49328,0.990617,0.993287,0.00801467,0,0
0.304375,2.49328,0.990617,0.993287,0.00801467,0,0
0.305625,2.49105,0.987513,0.991062,0.0106676,0,0
0.306875,2.49105,0.987513,0.991062,0.0106676,0,0
0.308125,2.48831,0.983719,0.988339,0.0139189,0,0
0.309375,2.48831,0.983719,0.988339,0.0139189,0,0
0.310625,2.48503,0.979183,0.985082,0.0178155,0,0
0.311875,2.48503,0.979183,0.985082,0.0178155,0,0
0.313125,2.48118,0.97388,0.981266,0.0223887,0,0
0.314375,2.48118,0.97388,0.981266,0.0223887,0,0
0.315625,2.47676,0.967804,0.976886,0.0276534,0,0
0.316875,2.47676,0.967804,0.976886,0.0276534,0,0
0.318125,2.47175,0.960967,0.971949,0.0336085,0,0
0.319375,2.47175,0.960967,0.971949,0.0336085,0,0
0.320625,2.46619,0.953404,0.966475,0.040239,0,0
0.321875,2.46619,0.953404,0.966475,0.040239,0,0
0.323125,2.46009,0.945157,0.960492,0.0475188,0,0
0.324375,2.46009,0.945157,0.960492,0.0475188,0,0
0.325625,2.45348,0.936283,0.954037,0.055414,0,0
0.326875,2.45348,0.936283,0.954037,0.055414,0,0
0.328125,2.4464,0.926842,0.947149,0.063886,0,0
0.329375,2.4464,0.926842,0.947149,0.063886,0,0
0.330625,2.43889,0.916893,0.939869,0.072893,0,0
0.331875,2.43889,0.916893,0.939869,0.072893,0,0
0.333125,2.43097,0.906502,0.932241,0.0823914,0,0
0.334375,2.43097,0.906502,0.932241,0.0823914,0,0
0.335625,2.42271,0.895728,0.924305,0.0923398,0,0
0.336875,2.42271,0.895728,0.924305,0.0923398,0,0
0.338125,2.41411,0.884628,0.9161,0.102698,0,0
0.339375,2.41411,0.884628,0.9161,0.102698,0,0
0.340625,2.40523,0.873253,0.907662,0.113429,0,0
0.341875,2.40523,0.873253,0.907662,0.113429,0,0
0.343125,2.39608,0.861654,0.899025,0.124497,0,0
0.344375,2.39608,0.861654,0.899025,0.124497,0,0
0.345625,2.38671,0.849874,0.890216,0.135871,0,0
0.346875,2.38671,0.849874,0.890216,0.135871,0,0
0.348125,2.37712,0.837949,0.881266,0.147518,0,0
0.349375,2.37712,0.837949,0.881266,0.147518,0,0
0.350625,2.36736,0.825937,0.872214,0.159403,0,0
0.351875,2.36736,0.825937,0.872214,0.159403,0,0
0.353125,2.35745,0.813865,0.863079,0.171498,0,0
0.354375,2.35745,0.813865,0.863079,0.171498,0,0
0.355625,2.3474,0.801758,0.853879,0.183783,0,0
0.356875,2.3474,0.801758,0.853879,0.183783,0,0
0.358125,2.33724,0.78964,0.84463,0.196242,0,0
0.359375,2.33724,0.78964,0.84463,0.196242,0,0
0.360625,2.32697,0.777529,0.835346,0.208855,0,0
0.361875,2.32697,0.777529,0.835346,0.208855,0,0
0.363125,2.31661,0.765452,0.826047,0.221606,0,0
0.364375,2.31661,0.765452,0.826047,0.221606,0,0
0.365625,2.30618,0.753418,0.81674,0.234478,0,0
0.366875,2.30618,0.753418,0.81674,0.234478,0,0
0.368125,2.29568,0.741454,0.807445,0.247458,0,0
0.369375,2.29568,0.741454,0.807445,0.247458,0,0
0.370625,2.28513,0.72956,0.798161,0.260535,0,0
0.371875,2.28513,0.72956,0.798161,0.260535,0,0
0.373125,2.27453,0.717764,0.788913,0.2737,0,0
0.374375,2.27453,0.717764,0.788913,0.2737,0,0
0.375625,2.2639,0.706041,0.779673,0.286934,0,0
0.376875,2.2639,0.706041,0.779673,0.286934,0,0
0.378125,2.25325,0.694479,0.770532,0.300247,0,0
0.379375,2.25325,0.694479,0.770532,0.300247,0,0
0.380625,2.24257,0.682942,0.76134,0.313594,0,0
0.381875,2.24257,0.682942,0.76134,0.313594,0,0
0.383125,2.23189,0.671666,0.752352,0.327006,0,0
0.384375,2.23189,0.671666,0.752352,0.327006,0,0
0.385625,2.2212,0.660343,0.74323,0.340452,0,0
0.386875,2.2212,0.660343,0.74323,0.340452,0,0
0.388125,2.21049,0.649342,0.734386,0.353935,0,0
0.389375,2.21049,0.649342,0.734386,0.353935,0,0
0.390625,2.1998,0.638275,0.725378,0.367457,0,0
0.391875,2.1998,0.638275,0.725378,0.367457,0,0
0.393125,2.18909,0.627539,0.716668,0.381008,0,0
0.394375,2.18909,0.627539,0.716668,0.381008,0,0
0.395625,2.17839,0.616743,0.707796,0.39459,0,0
0.396875,2.17839,0.616743,0.707796,0.39459,0,0
0.398125,2.16768,0.606279,0.699226,0.408196,0,0
0.399375,2.16768,0.606279,0.699226,0.408196,0,0
0.400625,2.157,0.595757,0.690493,0.421829,0,0
0.401875,2.157,0.595757,0.690493,0.421829,0,0
0.403125,2.14629,0.585562,0.682062,0.435484,0,0
0.404375,2.14629,0.585562,0.682062,0.435484,0,0
0.405625,2.13563,0.575313,0.673471,0.449165,0,0
0.406875,2.13563,0.575313,0.673471,0.449165,0,0
0.408125,2.12494,0.565387,0.665179,0.462867,0,0
0.409375,2.12494,0.565387,0.665179,0.462867,0,0
0.410625,2.11429,0.555407,0.65673,0.476593,0,0
0.411875,2.11429,0.555407,0.65673,0.476593,0,0
0.413125,2.10364,0.545752,0.648581,0.490338,0,0
0.414375,2.10364,0.545752,0.648581,0.490338,0,0
0.415625,2.093,0.536039,0.640275,0.504106,0,0
0.416875,2.093,0.536039,0.640275,0.504106,0,0
0.418125,2.08237,0.526646,0.632269,0.517889,0,0
0.419375,2.08237,0.526646,0.632269,0.517889,0,0
0.420625,2.07177,0.517202,0.624108,0.531695,0,0
0.421875,2.07177,0.517202,0.624108,0.531695,0,0
0.423125,2.06116,0.50807,0.616243,0.545517,0,0
0.424375,2.06116,0.50807,0.616243,0.545517,0,0
0.425625,2.05058,0.498886,0.608226,0.559361,0,0
0.426875,2.05058,0.498886,0.608226,0.559361,0,0
0.428125,2.03999,0.490008,0.600502,0.573223,0,0
0.429375,2.03999,0.490008,0.600502,0.573223,0,0
0.430625,2.02943,0.481077,0.592625,0.58711,0,0
0.431875,2.02943,0.481077,0.592625,0.58711,0,0
0.433125,2.01887,0.472446,0.585038,0.601015,0,0
0.434375,2.01887,0.472446,0.585038,0.601015,0,0
0.435625,2.00834,0.463765,0.577299,0.614943,0,0
0.436875,2.00834,0.463765,0.577299,0.614943,0,0
0.438125,1.99781,0.455377,0.569846,0.628891,0,0
0.439375,1.99781,0.455377,0.569846,0.628891,0,0
0.440625,1.9873,0.446939,0.562244,0.642863,0,0
0.441875,1.9873,0.446939,0.562244,0.642863,0,0
0.443125,1.97678,0.438786,0.554924,0.656859,0,0
0.444375,1.97678,0.438786,0.554924,0.656859,0,0
0.445625,1.96627,0.430579,0.547455,0.670882,0,0
0.446875,1.96627,0.430579,0.547455,0.670882,0,0
0.448125,1.95577,0.422657,0.540269,0.684925,0,0
0.449375,1.95577,0.422657,0.540269,0.684925,0,0
0.450625,1.9453,0.414686,0.532934,0.698998,0,0
0.451875,1.9453,0.414686,0.532934,0.698998,0,0
0.453125,1.93482,0.406986,0.525871,0.713097,0,0
0.454375,1.93482,0.406986,0.525871,0.713097,0,0
0.455625,1.92435,0.399238,0.518666,0.727232,0,0
0.456875,1.92435,0.399238,0.518666,0.727232,0,0
0.458125,1.91388,0.391745,0.511717,0.741401,0,0
0.459375,1.91388,0.391745,0.511717,0.741401,0,0
0.460625,1.90341,0.384209,0.504633,0.755614,0,0
0.461875,1.90341,0.384209,0.504633,0.755614,0,0
0.463125,1.89293,0.376912,0.49779,0.769869,0,0
0.464375,1.89293,0.376912,0.49779,0.769869,0,0
0.465625,1.88244,0.369575,0.490819,0.784182,0,0
0.466875,1.88244,0.369575,0.490819,0.784182,0,0
0.468125,1.87194,0.362454,0.484063,0.798547,0,0
0.469375,1.87194,0.362454,0.484063,0.798547,0,0
0.470625,1.86139,0.355313,0.477216,0.812973,0,0
0.471875,1.86139,0.355313,0.477216,0.812973,0,0
0.473125,1.85097,0.348381,0.470538,0.827353,0,0
0.474375,1.85097,0.348381,0.470538,0.827353,0,0
0.475625,1.84053,0.341576,0.463965,0.841651,0,0
0.476875,1.84053,0.341576,0.463965,0.841651,0,0
0.478125,1.83033,0.334971,0.457529,0.855806,0,0
0.479375,1.83033,0.334971,0.457529,0.855806,0,0
0.480625,1.82019,0.328483,0.451166,0.869896,0,0
0.481875,1.82019,0.328483,0.451166,0.869896,0,0
0.483125,1.81018,0.322257,0.445063,0.883725,0,0
0.484375,1.81018,0.322257,0.445063,0.883725,0,0
0.485625,1.80049,0.316265,0.439137,0.897125,0,0
0.486875,1.80049,0.316265,0.439137,0.897125,0,0
0.488125,1.79149,0.310698,0.433575,0.909915,0,0
0.489375,1.79149,0.310698,0.433575,0.909915,0,0
0.490625,1.78325,0.305751,0.428644,0.921301,0,0
0.491875,1.78325,0.305751,0.428644,0.921301,0,0
0.493125,1.77669,0.30178,0.424637,0.930714,0,0
0.494375,1.77669,0.30178,0.424637,0.930714,0,0
0.495625,1.77261,0.299383,0.422236,0.936378,0,0
0.496875,1.77261,0.299383,0.422236,0.936378,0,0
0.498125,1.77128,0.298541,0.421365,0.938472,0,0
0.499375,1.77128,0.298541,0.421365,0.938472,0,0
0.500625,1.7715,0.298588,0.421376,0.938206,0,0
0.501875,1.7715,0.298588,0.421376,0.938206,0,0
0.503125,1.77214,0.298927,0.421704,0.937379,0,0
0.504375,1.77214,0.298927,0.421704,0.937379,0,0
0.505625,1.77322,0.299547,0.422321,0.935901,0,0
0.506875,1.77322,0.299547,0.422321,0.935901,0,0
0.508125,1.7747,0.300435,0.423219,0.933815,0,0
0.509375,1.7747,0.300435,0.423219,0.933815,0,0
0.510625,1.77644,0.301515,0.424325,0.931297,0,0
0.511875,1.77644,0.301515,0.424325,0.931297,0,0
0.513125,1.77827,0.302615,0.425434,0.928639,0,0
0.514375,1.77827,0.302615,0.425434,0.928639,0,0
0.515625,1.77856,0.302793,0.425616,0.928327,0,0
0.516875,1.77856,0.302793,0.425616,0.928327,0,0
0.518125,1.77852,0.302753,0.425569,0.928429,0,0
0.519375,1.77852,0.302753,0.425569,0.928429,0,0
0.520625,1.77845,0.302685,0.425488,0.928583,0,0
0.521875,1.77845,0.302685,0.425488,0.928583,0,0
0.523125,1.77848,0.302664,0.425454,0.928636,0,0
0.524375,1.77848,0.302664,0.425454,0.928636,0,0
0.525625,1.77852,0.302673,0.425456,0.928605,0,0
0.526875,1.77852,0.302673,0.425456,0.928605,0,0
0.528125,1.77862,0.302708,0.425483,0.928522,0,0
0.529375,1.77862,0.302708,0.425483,0.928522,0,0
0.530625,1.77874,0.302766,0.425534,0.928388,0,0
0.531875,1.77874,0.302766,0.425534,0.928388,0,0
0.533125,1.77888,0.302837,0.425601,0.928223,0,0
0.534375,1.77888,0.302837,0.425601,0.928223,0,0
0.535625,1.77903,0.302908,0.425665,0.928052,0,0
0.536875,1.77903,0.302908,0.425665,0.928052,0,0
0.538125,1.77911,0.302935,0.425682,0.927991,0,0
0.539375,1.77911,0.302935,0.425682,0.927991,0,0
0.540625,1.7792,0.30296,0.425696,0.927931,0,0
0.541875,1.7792,0.30296,0.425696,0.927931,0,0
0.543125,1.7793,0.302986,0.425711,0.927865,0,0
0.544375,1.7793,0.302986,0.425711,0.927865,0,0
0.545625,1.77939,0.303012,0.425725,0.927808,0,0
0.546875,1.77939,0.303012,0.425725,0.927808,0,0
0.548125,1.77944,0.303011,0.42571,0.927807,0,0
0.549375,1.77944,0.303011,0.42571,0.927807,0,0
0.550625,1.7795,0.303014,0.425701,0.927797,0,0
0.551875,1.7795,0.303014,0.425701,0.927797,0,0
0.553125,1.77957,0.303023,0.425696,0.927778,0,0
0.554375,1.77957,0.303023,0.425696,0.927778,0,0
0.555625,1.77964,0.303035,0.425696,0.927746,0,0
0.556875,1.77964,0.303035,0.425696,0.927746,0,0
0.558125,1.77973,0.303055,0.425703,0.9277,0,0
0.559375,1.77973,0.303055,0.425703,0.9277,0,0
0.560625,1.77982,0.303078,0.425714,0.927647,0,0
0.561875,1.77982,0.303078,0.425714,0.927647,0,0
0.563125,1.77989,0.303087,0.425709,0.927634,0,0
0.564375,1.77989,0.303087,0.425709,0.927634,0,0
0.565625,1.77996,0.303085,0.42569,0.927634,0,0
0.566875,1.77996,0.303085,0.42569,0.927634,0,0
0.568125,1.78005,0.303087,0.425673,0.927629,0,0
0.569375,1.78005,0.303087,0.425673,0.927629,0,0
0.570625,1.78015,0.303093,0.425658,0.927616,0,0
0.571875,1.78015,0.303093,0.425658,0.927616,0,0
0.573125,1.78026,0.303102,0.425643,0.927595,0,0
0.574375,1.78026,0.303102,0.425643,0.927595,0,0
0.575625,1.78039,0.303114,0.42563,0.927568,0,0
0.576875,1.78039,0.303114,0.42563,0.927568,0,0
0.578125,1.78052,0.303128,0.425618,0.927545,0,0
0.579375,1.78052,0.303128,0.425618,0.927545,0,0
0.580625,1.78064,0.303126,0.425584,0.927546,0,0
0.581875,1.78064,0.303126,0.425584,0.927546,0,0
0.583125,1.78078,0.303127,0.425554,0.927543,0,0
0.584375,1.78078,0.303127,0.425554,0.927543,0,0
0.585625,1.78093,0.303131,0.425523,0.927537,0,0
0.586875,1.78093,0.303131,0.425523,0.927537,0,0
0.588125,1.7811,0.303135,0.425487,0.927529,0,0
0.589375,1.7811,0.303135,0.425487,0.927529,0,0
0.590625,1.78132,0.30314,0.425444,0.92752,0,0
0.591875,1.78132,0.30314,0.425444,0.92752,0,0
0.593125,1.7816,0.303146,0.425386,0.927509,0,0
0.594375,1.7816,0.303146,0.425386,0.927509,0,0
0.595625,1.78198,0.303153,0.425304,0.927497,0,0
0.596875,1.78198,0.303153,0.425304,0.927497,0,0
0.598125,1.78253,0.303156,0.425176,0.927495,0,0
0.599375,1.78253,0.303156,0.425176,0.927495,0,0
0.600625,1.78336,0.303157,0.42498,0.927495,0,0
0.601875,1.78336,0.303157,0.42498,0.927495,0,0
0.603125,1.78463,0.30316,0.424682,0.927494,0,0
0.604375,1.78463,0.30316,0.424682,0.927494,0,0
0.605625,1.78656,0.303163,0.424227,0.927492,0,0
0.606875,1.78656,0.303163,0.424227,0.927492,0,0
0.608125,1.7895,0.303166,0.423535,0.927488,0,0
0.609375,1.7895,0.303166,0.423535,0.927488,0,0
0.610625,1.7939,0.30317,0.4225,0.927485,0,0
0.611875,1.7939,0.30317,0.4225,0.927485,0,0
0.613125,1.8004,0.303174,0.420981,0.927486,0,0
0.614375,1.8004,0.303174,0.420981,0.927486,0,0
0.615625,1.80978,0.303177,0.418804,0.927491,0,0
0.616875,1.80978,0.303177,0.418804,0.927491,0,0
0.618125,1.82304,0.303179,0.415761,0.927507,0,0
0.619375,1.82304,0.303179,0.415761,0.927507,0,0
0.620625,1.84132,0.303179,0.411634,0.927536,0,0
0.621875,1.84132,0.303179,0.411634,0.927536,0,0
0.623125,1.86593,0.303182,0.406208,0.927581,0,0
0.624375,1.86593,0.303182,0.406208,0.927581,0,0
0.625625,1.89823,0.303186,0.399301,0.927647,0,0
0.626875,1.89823,0.303186,0.399301,0.927647,0,0
0.628125,1.93956,0.303192,0.3908,0.927745,0,0
0.629375,1.93956,0.303192,0.3908,0.927745,0,0
0.630625,1.9911,0.303196,0.38069,0.927882,0,0
0.631875,1.9911,0.303196,0.38069,0.927882,0,0
0.633125,2.05368,0.303197,0.369091,0.928057,0,0
0.634375,2.05368,0.303197,0.369091,0.928057,0,0
0.635625,2.12761,0.303199,0.356267,0.928266,0,0
0.636875,2.12761,0.303199,0.356267,0.928266,0,0
0.638125,2.21247,0.303212,0.342618,0.928449,0,0
0.639375,2.21247,0.303212,0.342618,0.928449,0,0
0.640625,2.3069,0.30319,0.328569,0.928369,0,0
0.641875,2.3069,0.30319,0.328569,0.928369,0,0
0.643125,2.40811,0.303063,0.314627,0.92781,0,0
0.644375,2.40811,0.303063,0.314627,0.92781,0,0
0.645625,2.5091,0.303193,0.302094,0.927245,0,0
0.646875,2.5091,0.303193,0.302094,0.927245,0,0
0.648125,2.5962,0.303225,0.291989,0.92727,0,0
0.649375,2.5962,0.303225,0.291989,0.92727,0,0
0.650625,2.66771,0.303218,0.284156,0.927358,0,0
0.651875,2.66771,0.303218,0.284156,0.927358,0,0
0.653125,2.72397,0.30321,0.27828,0.927445,0,0
0.654375,2.72397,0.30321,0.27828,0.927445,0,0
0.655625,2.76647,0.303208,0.274002,0.927489,0,0
0.656875,2.76647,0.303208,0.274002,0.927489,0,0
0.658125,2.79739,0.30321,0.270976,0.927512,0,0
0.659375,2.79739,0.30321,0.270976,0.927512,0,0
0.660625,2.81908,0.303214,0.268894,0.927515,0,0
0.661875,2.81908,0.303214,0.268894,0.927515,0,0
0.663125,2.8338,0.30322,0.267503,0.92751,0,0
0.664375,2.8338,0.30322,0.267503,0.92751,0,0
0.665625,2.8434,0.303227,0.266606,0.9275,0,0
0.666875,2.8434,0.303227,0.266606,0.9275,0,0
0.668125,2.84943,0.303231,0.266045,0.927502,0,0
0.669375,2.84943,0.303231,0.266045,0.927502,0,0
0.670625,2.85305,0.30323,0.265707,0.927514,0,0
0.671875,2.85305,0.30323,0.265707,0.927514,0,0
0.673125,2.85509,0.303226,0.265513,0.927535,0,0
0.674375,2.85509,0.303226,0.265513,0.927535,0,0
0.675625,2.8561,0.303221,0.265415,0.927558,0,0
0.676875,2.8561,0.303221,0.265415,0.927558,0,0
0.678125,2.85656,0.303222,0.265374,0.927571,0,0
0.679375,2.85656,0.303222,0.265374,0.927571,0,0
0.680625,2.85671,0.303227,0.265364,0.927563,0,0
0.681875,2.85671,0.303227,0.265364,0.927563,0,0
0.683125,2.85671,0.303239,0.265374,0.927541,0,0
0.684375,2.85671,0.303239,0.265374,0.927541,0,0
0.685625,2.85662,0.303253,0.265394,0.927519,0,0
0.686875,2.85662,0.303253,0.265394,0.927519,0,0
0.688125,2.85643,0.303253,0.265413,0.927525,0,0
0.689375,2.85643,0.303253,0.265413,0.927525,0,0
0.690625,2.85617,0.303251,0.265435,0.927542,0,0
0.691875,2.85617,0.303251,0.265435,0.927542,0,0
0.693125,2.85587,0.303244,0.265457,0.927571,0,0
0.694375,2.85587,0.303244,0.265457,0.927571,0,0
0.695625,2.85564,0.303236,0.265471,0.927605,0,0
0.696875,2.85564,0.303236,0.265471,0.927605,0,0
0.698125,2.85545,0.303236,0.265489,0.927631,0,0
0.699375,2.85545,0.303236,0.265489,0.927631,0,0
0.700625,2.85533,0.303243,0.265506,0.92762,0,0
0.701875,2.85533,0.303243,0.265506,0.92762,0,0
0.703125,2.85527,0.303258,0.265525,0.927589,0,0
0.704375,2.85527,0.303258,0.265525,0.927589,0,0
0.705625,2.85521,0.303276,0.265546,0.92755,0,0
0.706875,2.85521,0.303276,0.265546,0.92755,0,0
0.708125,2.85513,0.303283,0.26556,0.927549,0,0
0.709375,2.85513,0.303283,0.26556,0.927549,0,0
0.710625,2.85504,0.303281,0.265566,0.927573,0,0
0.711875,2.85504,0.303281,0.265566,0.927573,0,0
0.713125,2.85494,0.303271,0.265567,0.927623,0,0
0.714375,2.85494,0.303271,0.265567,0.927623,0,0
0.715625,2.85483,0.303257,0.265565,0.927688,0,0
0.716875,2.85483,0.303257,0.265565,0.927688,0,0
0.718125,2.85473,0.303246,0.265565,0.927731,0,0
0.719375,2.85473,0.303246,0.265565,0.927731,0,0
0.720625,2.85469,0.303265,0.265584,0.927709,0,0
0.721875,2.85469,0.303265,0.265584,0.927709,0,0
0.723125,2.85469,0.303287,0.265603,0.927667,0,0
0.724375,2.85469,0.303287,0.265603,0.927667,0,0
0.725625,2.8547,0.303313,0.265627,0.927614,0,0
0.726875,2.8547,0.303313,0.265627,0.927614,0,0
0.728125,2.85466,0.303325,0.26564,0.927579,0,0
0.729375,2.85466,0.303325,0.26564,0.927579,0,0
0.730625,2.85457,0.303315,0.26564,0.927597,0,0
0.731875,2.85457,0.303315,0.26564,0.927597,0,0
0.733125,2.85444,0.303281,0.265622,0.92764,0,0
0.734375,2.85444,0.303281,0.265622,0.92764,0,0
0.735625,2.85427,0.303224,0.265588,0.927637,0,0
0.736875,2.85427,0.303224,0.265588,0.927637,0,0
0.738125,2.85409,0.303152,0.265542,0.927495,0,0
0.739375,2.85409,0.303152,0.265542,0.927495,0,0
0.740625,2.85385,0.303055,0.26548,0.92707,0,0
0.741875,2.85385,0.303055,0.26548,0.92707,0,0
0.743125,2.85337,0.302865,0.265357,0.926198,0,0
0.744375,2.85337,0.302865,0.265357,0.926198,0,0
0.745625,2.85233,0.302444,0.265085,0.924586,0,0
0.746875,2.85233,0.302444,0.265085,0.924586,0,0
0.748125,2.85013,0.30154,0.264496,0.921594,0,0
0.749375,2.85013,0.30154,0.264496,0.921594,0,0
0.750625,2.84573,0.29972,0.263307,0.915837,0,0
0.751875,2.84573,0.29972,0.263307,0.915837,0,0
0.753125,2.83711,0.296185,0.260992,0.904544,0,0
0.754375,2.83711,0.296185,0.260992,0.904544,0,0
0.755625,2.82017,0.289437,0.256578,0.882379,0,0
0.756875,2.82017,0.289437,0.256578,0.882379,0,0
0.758125,2.7864,0.276737,0.248293,0.839402,0,0
0.759375,2.7864,0.276737,0.248293,0.839402,0,0
0.760625,2.71852,0.253649,0.23326,0.758289,0,0
0.761875,2.71852,0.253649,0.23326,0.758289,0,0
0.763125,2.58459,0.214906,0.207872,0.612164,0,0
0.764375,2.58459,0.214906,0.207872,0.612164,0,0
0.765625,2.34468,0.161036,0.171704,0.391489,0,0
0.766875,2.34468,0.161036,0.171704,0.391489,0,0
0.768125,2.12922,0.122492,0.143823,0.174875,0,0
0.769375,2.12922,0.122492,0.143823,0.174875,0,0
0.770625,2.03725,0.1066,0.130813,0.054861,0,0
0.771875,2.03725,0.1066,0.130813,0.054861,0,0
0.773125,2.00929,0.101662,0.126489,0.0143032,0,0
0.774375,2.00929,0.101662,0.126489,0.0143032,0,0
0.775625,2.00217,0.100386,0.125347,0.0034177,0,0
0.776875,2.00217,0.100386,0.125347,0.0034177,0,0
0.778125,2.0005,0.100088,0.125078,0.000781791,0,0
0.779375,2.0005,0.100088,0.125078,0.000781791,0,0
0.780625,2.0001,0.100019,0.125018,0.000175554,0,0
0.781875,2.0001,0.100019,0.125018,0.000175554,0,0
0.783125,2.00002,0.100004,0.125004,3.79447e-05,0,0
0.784375,2.00002,0.100004,0.125004,3.79447e-05,0,0
0.785625,2,0.100001,0.125001,7.44312e-06,0,0
0.786875,2,0.100001,0.125001,7.44312e-06,0,0
0.788125,2,0.1,0.125,1.17883e-06,0,0
0.789375,2,0.1,0.125,1.17883e-06,0,0
0.790625,2,0.1,0.125,1.92566e-07,0,0
0.791875,2,0.1,0.125,1.92566e-07,0,0
0.793125,2,0.1,0.125,3.09038e-08,0,0
0.794375,2,0.1,0.125,3.09038e-08,0,0
0.795625,2,0.1,0.125,4.94728e-09,0,0
0.796875,2,0.1,0.125,4.94728e-09,0,0
0.798125,2,0.1,0.125,7.94634e-10,0,0
0.799375,2,0.1,0.125,7.94634e-10,0,0
0.800625,2,0.1,0.125,1.2696e-10,0,0
0.801875,2,0.1,0.125,1.2696e-10,0,0
0.803125,2,0.1,0.125,1.95423e-11,0,0
0.804375,2,0.1,0.125,1.95423e-11,0,0
0.805625,2,0.1,0.125,2.66979e-12,0,0
0.806875,2,0.1,0.125,2.66979e-12,0,0
0.808125,2,0.1,0.125,3.11457e-13,0,0
0.809375,2,0.1,0.125,3.11457e-13,0,0
0.810625,2,0.1,0.125,3.3992e-14,0,0
0.811875,2,0.1,0.125,3.3992e-14,0,0
0.813125,2,0.1,0.125,4.2782e-15,0,0
0.814375,2,0.1,0.125,4.2782e-15,0,0
0.815625,2,0.1,0.125,4.04915e-16,0,0
0.816875,2,0.1,0.125,4.04915e-16,0,0
0.818125,2,0.1,0.125,-1.55864e-15,0,0
0.819375,2,0.1,0.125,-1.55864e-15,0,0
0.820625,2,0.1,0.125,1.38732e-17,0,0
0.821875,2,0.1,0.125,1.38732e-17,0,0
0.823125,2,0.1,0.125,-9.99965e-16,0,0
0.824375,2,0.1,0.125,-9.99965e-16,0,0
0.825625,2,0.1,0.125,-9.40988e-16,0,0
0.826875,2,0.1,0.125,-9.40988e-16,0,0
0.828125,2,0.1,0.125,-1.417e-15,0,0
0.829375,2,0.1,0.125,-1.417e-15,0,0
0.830625,2,0.1,0.125,-9.38705e-16,0,0
0.831875,2,0.1,0.125,-9.38705e-16,0,0
0.833125,2,0.1,0.125,-6.8539e-16,0,0
0.834375,2,0.1,0.125,-6.8539e-16,0,0
0.835625,2,0.1,0.125,1.44318e-16,0,0
0.836875,2,0.1,0.125,1.44318e-16,0,0
0.838125,2,0.1,0.125,9.54492e-17,0,0
0.839375,2,0.1,0.125,9.54492e-17,0,0
0.840625,2,0.1,0.125,-1.93766e-16,0,0
0.841875,2,0.1,0.125,-1.93766e-16,0,0
0.843125,2,0.1,0.125,4.34093e-16,0,0
0.844375,2,0.1,0.125,4.34093e-16,0,0
0.845625,2,0.1,0.125,2.10599e-15,0,0
0.846875,2,0.1,0.125,2.10599e-15,0,0
0.848125,2,0.1,0.125,1.04064e-15,0,0
0.849375,2,0.1,0.125,1.04064e-15,0,0
0.850625,2,0.1,0.125,2.08688e-15,0,0
0.851875,2,0.1,0.125,2.08688e-15,0,0
0.853125,2,0.1,0.125,3.80663e-16,0,0
0.854375,2,0.1,0.125,3.80663e-16,0,0
0.855625,2,0.1,0.125,6.24336e-17,0,0
0.856875,2,0.1,0.125,6.24336e-17,0,0
0.858125,2,0.1,0.125,3.0417e-16,0,0
0.859375,2,0.1,0.125,3.0417e-16,0,0
0.860625,2,0.1,0.125,-2.32299e-16,0,0
0.861875,2,0.1,0.125,-2.32299e-16,0,0
0.863125,2,0.1,0.125,-3.59443e-16,0,0
0.864375,2,0.1,0.125,-3.59443e-16,0,0
0.865625,2,0.1,0.125,9.05562e-16,0,0
0.866875,2,0.1,0.125,9.05562e-16,0,0
0.868125,2,0.1,0.125,4.85522e-16,0,0
0.869375,2,0.1,0.125,4.85522e-16,0,0
0.870625,2,0.1,0.125,7.77359e-16,0,0
0.871875,2,0.1,0.125,7.77359e-16,0,0
0.873125,2,0.1,0.125,7.47728e-16,0,0
0.874375,2,0.1,0.125,7.47728e-16,0,0
0.875625,2,0.1,0.125,-6.54771e-16,0,0
0.876875,2,0.1,0.125,-6.54771e-16,0,0
0.878125,2,0.1,0.125,-8.86747e-16,0,0
0.879375,2,0.1,0.125,-8.86747e-16,0,0
0.880625,2,0.1,0.125,5.49953e-16,0,0
0.881875,2,0.1,0.125,5.49953e-16,0,0